 Gaussian 16, Revision C.01,
 Gaussian 16:  ES64L-G16RevC.01  3-Jul-2019

 --------------------------------------------------------------------
 #P B3LYP/6-311++G(d,p) EmpiricalDispersion=GD3 freq(noraman) SCF=YQC
 --------------------------------------------------------------------

 ----------------------------
 Restart from THB_benzene.log
 ----------------------------
 Symbolic Z-matrix:
 Charge =  0 Multiplicity = 1

                         Standard orientation:
 ---------------------------------------------------------------------
 Center     Atomic      Atomic             Coordinates (Angstroms)
 Number     Number       Type             X           Y           Z
 ---------------------------------------------------------------------
      1          6           0       -1.205472    5.515051    0.000000
      2          6           0        0.000057    4.796301    0.000000
      3          6           0        1.205530    5.515136    0.000000
      4          6           0        1.227512    6.916439    0.000000
      5          6           0       -0.000044    7.595940    0.000000
      6          6           0       -1.227553    6.916349    0.000000
      7          5           0        0.000092    3.260433    0.000000
      8          8           0       -1.145253    2.464544    0.000000
      9          6           0       -0.698766    1.162030    0.000000
     10          6           0       -1.458468    0.000011    0.000000
     11          6           0       -0.698779   -1.162015    0.000000
     12          6           0        0.698876   -1.162026    0.000000
     13          6           0        1.458581   -0.000011    0.000000
     14          6           0        0.698889    1.162012    0.000000
     15          8           0       -1.145289   -2.464527    0.000000
     16          5           0        0.000033   -3.260433    0.000000
     17          8           0        1.145365   -2.464547    0.000000
     18          8           0        1.145400    2.464530    0.000000
     19          6           0        0.000012   -4.796301    0.000000
     20          6           0        1.205502   -5.515112    0.000000
     21          6           0        1.227512   -6.916413    0.000000
     22          6           0       -0.000031   -7.595940    0.000000
     23          6           0       -1.227553   -6.916376    0.000000
     24          6           0       -1.205500   -5.515075    0.000000
     25          1           0        2.145567   -4.973579    0.000000
     26          1           0       -0.000047   -8.680406    0.000000
     27          1           0       -2.145549   -4.973513    0.000000
     28          1           0       -2.539365    0.000015    0.000000
     29          1           0        2.539478   -0.000015    0.000000
     30          1           0        2.145608    4.973624    0.000000
     31          1           0       -0.000084    8.680406    0.000000
     32          1           0       -2.145508    4.973468    0.000000
     33          5           0       -2.578368    7.695782    0.000000
     34          5           0        2.578273    7.695964    0.000000
     35          8           0        2.538900    9.070151    0.000000
     36          8           0        3.747196    6.972029    0.000000
     37          1           0        4.562435    7.480506    0.000000
     38          1           0        3.388521    9.518850    0.000000
     39          8           0       -3.747241    6.971765    0.000000
     40          8           0       -2.539090    9.069971    0.000000
     41          1           0       -4.562515    7.480186    0.000000
     42          1           0       -3.388742    9.518611    0.000000
     43          5           0        2.578289   -7.695912    0.000000
     44          5           0       -2.578353   -7.695834    0.000000
     45          8           0        2.538943   -9.070099    0.000000
     46          1           0        3.388572   -9.518782    0.000000
     47          8           0        3.747197   -6.971953    0.000000
     48          1           0        4.562446   -7.480415    0.000000
     49          8           0       -3.747240   -6.971839    0.000000
     50          8           0       -2.539049   -9.070022    0.000000
     51          1           0       -3.388692   -9.518679    0.000000
     52          1           0       -4.562504   -7.480276    0.000000
 ---------------------------------------------------------------------

 SCF Done:  E(RB3LYP) =  -1748.60044532     a.u. after    6 cycles
 SCF Done:  E(RB3LYP) =  -1748.60046713     A.U. after   10 cycles

 The electronic state is 1-A'.
 Alpha  occ. eigenvalues --  -19.16056 -19.16056 -19.16055 -19.16054 -19.14185
 Alpha  occ. eigenvalues --  -19.14185 -19.14185 -19.14185 -19.14184 -19.14184
 Alpha  occ. eigenvalues --  -19.14184 -19.14184 -10.23689 -10.23688 -10.23635
 Alpha  occ. eigenvalues --  -10.23634 -10.18934 -10.18933 -10.17495 -10.17495
 Alpha  occ. eigenvalues --  -10.17494 -10.17494 -10.17266 -10.17266 -10.15784
 Alpha  occ. eigenvalues --  -10.15784 -10.15316 -10.15316 -10.15314 -10.15314
 Alpha  occ. eigenvalues --   -6.78749  -6.78749  -6.78607  -6.78607  -6.78607
 Alpha  occ. eigenvalues --   -6.78607  -1.10945  -1.10748  -1.05026  -1.05025
 Alpha  occ. eigenvalues --   -1.05020  -1.05020  -1.03387  -1.03284  -1.01612
 Alpha  occ. eigenvalues --   -1.01612  -1.01607  -1.01607  -0.86277  -0.84725
 Alpha  occ. eigenvalues --   -0.84648  -0.76740  -0.74885  -0.74291  -0.74248
 Alpha  occ. eigenvalues --   -0.74228  -0.72126  -0.63992  -0.62989  -0.61682
 Alpha  occ. eigenvalues --   -0.61593  -0.61245  -0.61025  -0.59626  -0.58742
 Alpha  occ. eigenvalues --   -0.57057  -0.56827  -0.56409  -0.56396  -0.55810
 Alpha  occ. eigenvalues --   -0.54972  -0.54812  -0.54387  -0.53833  -0.51041
 Alpha  occ. eigenvalues --   -0.49817  -0.48833  -0.48591  -0.47681  -0.46450
 Alpha  occ. eigenvalues --   -0.45752  -0.45446  -0.44254  -0.44251  -0.43805
 Alpha  occ. eigenvalues --   -0.43793  -0.43589  -0.43008  -0.42052  -0.41422
 Alpha  occ. eigenvalues --   -0.40506  -0.40493  -0.39984  -0.39984  -0.39243
 Alpha  occ. eigenvalues --   -0.39180  -0.38773  -0.38763  -0.38323  -0.38121
 Alpha  occ. eigenvalues --   -0.36949  -0.36923  -0.36916  -0.36150  -0.35794
 Alpha  occ. eigenvalues --   -0.35465  -0.35229  -0.35228  -0.35167  -0.35080
 Alpha  occ. eigenvalues --   -0.33573  -0.33571  -0.33553  -0.33553  -0.33187
 Alpha  occ. eigenvalues --   -0.32020  -0.31890  -0.31637  -0.31624  -0.26335
 Alpha  occ. eigenvalues --   -0.25390  -0.25389  -0.25321  -0.25030  -0.21370
 Alpha virt. eigenvalues --   -0.04522  -0.03897  -0.03774  -0.03753  -0.02960
 Alpha virt. eigenvalues --   -0.02958  -0.02738  -0.02736  -0.01589   0.00456
 Alpha virt. eigenvalues --    0.01543   0.01647   0.01697   0.01738   0.01940

 Mulliken charges:
               1
     1  C   -0.064788
     2  C   -0.248605
     3  C   -0.064828
     4  C   -0.358294
     5  C   -0.574095
     6  C   -0.358252
     7  B    0.705520
     8  O   -0.164534
     9  C    0.162168
    10  C   -0.692449
    11  C    0.162190
    12  C    0.162186
    13  C   -0.692459
    14  C    0.162208
    15  O   -0.164549
    16  B    0.705520
    17  O   -0.164557
    18  O   -0.164572
    19  C   -0.248603
    20  C   -0.064836
    21  C   -0.358256
    22  C   -0.574097
    23  C   -0.358293
    24  C   -0.064775
    25  H    0.240443
    26  H    0.193330
    27  H    0.240445
    28  H    0.174775
    29  H    0.174778
    30  H    0.240434
    31  H    0.193330
    32  H    0.240453
    33  B    0.524894
    34  B    0.524897
    35  O   -0.329524
    36  O   -0.312617
    37  H    0.262477
    38  H    0.260533
    39  O   -0.312616
    40  O   -0.329524
    41  H    0.262478
    42  H    0.260535
    43  B    0.524895
    44  B    0.524896
    45  O   -0.329527
    46  H    0.260534
    47  O   -0.312618
    48  H    0.262477
    49  O   -0.312616
    50  O   -0.329521
    51  H    0.260534
    52  H    0.262477
 Sum of Mulliken charges =  -0.00000

 Dipole moment (field-independent basis, Debye):
    X=             -0.0001    Y=             -0.0000    Z=              0.0000  Tot=              0.0001
 Quadrupole moment (field-independent basis, Debye-Ang):
   XX=           -134.8509   YY=           -110.1051   ZZ=           -207.8256
   XY=              0.0002   XZ=              0.0000   YZ=              0.0000

  Exact polarizability:     361.560       0.001     546.908       0.000       0.000     166.587
 Approx polarizability:     570.581       0.000     654.206       0.000       0.000     269.087

                      1                      2                      3
                     A"                     A"                     A'
 Frequencies --     10.4201                13.6392                20.6120
 Red. masses --      7.0625                 8.7154                 7.6654
 Frc consts  --      0.0005                 0.0010                 0.0019
 IR Inten    --      0.0000                 1.1833                 0.5931

                      4                      5                      6
                     A"                     A"                     A'
 Frequencies --     35.2127                37.7817                41.1756
 Red. masses --      9.0438                 6.9347                 7.6309
 Frc consts  --      0.0066                 0.0058                 0.0076
 IR Inten    --      0.0000                 0.0000                 0.0000

                      7                      8                      9
                     A"                     A"                     A"
 Frequencies --     43.8271                43.8489                44.1451
 Red. masses --     10.1762                10.1704                10.0480
 Frc consts  --      0.0115                 0.0115                 0.0115
 IR Inten    --      0.0000                 0.0000                 0.2295

                     10                     11                     12
                     A"                     A"                     A'
 Frequencies --     50.2560                85.1450                85.1814
 Red. masses --      9.0875                 6.4021                 6.7623
 Frc consts  --      0.0135                 0.0273                 0.0289
 IR Inten    --      0.0000                15.7340                 0.0000

                     13                     14                     15
                     A'                     A"                     A'
 Frequencies --    101.8058               110.0230               129.4210
 Red. masses --      6.4252                 6.3451                 8.1019
 Frc consts  --      0.0392                 0.0453                 0.0800
 IR Inten    --      6.8535                 0.0000                 0.8206

                     16                     17                     18
                     A"                     A'                     A"
 Frequencies --    156.4389               158.5580               167.9800
 Red. masses --      5.1143                 7.8272                 4.1391
 Frc consts  --      0.0737                 0.1159                 0.0688
 IR Inten    --     10.1206                 0.0000                 0.0000

                     19                     20                     21
                     A"                     A'                     A"
 Frequencies --    170.3596               178.3694               194.3200
 Red. masses --      3.9368                 7.1733                 5.1722
 Frc consts  --      0.0673                 0.1345                 0.1151
 IR Inten    --      0.0000                 0.0000                 0.0000

                     22                     23                     24
                     A"                     A'                     A'
 Frequencies --    195.3167               238.1703               255.3943
 Red. masses --     12.9397                 6.9839                 9.2933
 Frc consts  --      0.2908                 0.2334                 0.3571
 IR Inten    --      0.0000                 3.0491                11.5001

                     25                     26                     27
                     A"                     A'                     A'
 Frequencies --    273.6702               275.3960               299.8370
 Red. masses --      6.7225                 8.0276                 7.8698
 Frc consts  --      0.2966                 0.3587                 0.4169
 IR Inten    --      0.1369                 0.0000                 0.0000

                     28                     29                     30
                     A'                     A"                     A'
 Frequencies --    302.4344               348.7809               350.6515
 Red. masses --      8.0227                 7.1226                 7.1084
 Frc consts  --      0.4323                 0.5105                 0.5150
 IR Inten    --      1.5197                 0.0000                12.7886

                     31                     32                     33
                     A"                     A"                     A"
 Frequencies --    352.6556               355.5821               355.6503
 Red. masses --      1.2751                 1.0659                 1.0672
 Frc consts  --      0.0934                 0.0794                 0.0795
 IR Inten    --      0.0000                 0.0000                 0.0000

                     34                     35                     36
                     A"                     A"                     A'
 Frequencies --    356.7225               372.0344               378.9113
 Red. masses --      1.0739                 3.4724                 6.1995
 Frc consts  --      0.0805                 0.2832                 0.5244
 IR Inten    --      0.7674                 0.0000                 0.0000

                     37                     38                     39
                     A"                     A"                     A'
 Frequencies --    405.4223               405.5065               408.8272
 Red. masses --      1.9847                 1.9870                 8.0627
 Frc consts  --      0.1922                 0.1925                 0.7940
 IR Inten    --      0.0000                 0.0000                 0.0000

                     40                     41                     42
                     A"                     A'                     A"
 Frequencies --    418.9516               424.8615               446.5855
 Red. masses --      2.7811                 7.3950                 1.9291
 Frc consts  --      0.2876                 0.7865                 0.2267
 IR Inten    --     54.6654                22.8969               279.4589

                     43                     44                     45
                     A"                     A'                     A'
 Frequencies --    447.6503               448.7293               475.4276
 Red. masses --      1.9450                 8.0158                 6.7609
 Frc consts  --      0.2296                 0.9510                 0.9004
 IR Inten    --      0.0000                26.2653                 0.0000

                     46                     47                     48
                     A"                     A'                     A"
 Frequencies --    512.0124               512.2450               512.7409
 Red. masses --      1.9046                10.2485                 1.9849
 Frc consts  --      0.2942                 1.5844                 0.3075
 IR Inten    --    486.8538                 0.0000                 0.0000

                     49                     50                     51
                     A"                     A"                     A'
 Frequencies --    522.8011               522.8929               527.5043
 Red. masses --      1.7023                 1.7014                 6.3702
 Frc consts  --      0.2741                 0.2741                 1.0444
 IR Inten    --      0.0000                 0.0000                 0.9401

                     52                     53                     54
                     A'                     A'                     A'
 Frequencies --    534.7065               550.2277               550.4790
 Red. masses --      6.7340                 3.6082                 3.6479
 Frc consts  --      1.1344                 0.6436                 0.6513
 IR Inten    --      0.0000               159.4314                 0.0000

                     55                     56                     57
                     A'                     A'                     A"
 Frequencies --    569.3838               572.6646               646.8759
 Red. masses --      3.3997                 3.4285                 8.9828
 Frc consts  --      0.6494                 0.6625                 2.2147
 IR Inten    --    117.8607                 0.0000               234.0925

                     58                     59                     60
                     A"                     A'                     A"
 Frequencies --    646.9542               696.5901               712.9672
 Red. masses --      9.2373                 5.0971                 8.5465
 Frc consts  --      2.2780                 1.4572                 2.5596
 IR Inten    --      0.0000                 0.0000                 0.0000

                     61                     62                     63
                     A"                     A"                     A"
 Frequencies --    713.0595               718.0958               721.7490
 Red. masses --      8.4976                12.1641                 8.7001
 Frc consts  --      2.5456                 3.6957                 2.6702
 IR Inten    --      0.0000                 0.0000                 0.4038

                     64                     65                     66
                     A"                     A"                     A'
 Frequencies --    721.9924               731.3319               734.6954
 Red. masses --      9.1924                 4.6450                 8.8665
 Frc consts  --      2.8232                 1.4637                 2.8198
 IR Inten    --      0.0000                 0.0000                 0.0000

                     67                     68                     69
                     A"                     A"                     A'
 Frequencies --    737.3400               737.5273               743.0511
 Red. masses --      2.1487                 2.1498                 8.5736
 Frc consts  --      0.6883                 0.6890                 2.7890
 IR Inten    --      0.0000                90.1440                11.2872

                     70                     71                     72
                     A'                     A'                     A'
 Frequencies --    784.9390               817.8486               833.9360
 Red. masses --     10.9851                 8.5435                 8.6162
 Frc consts  --      3.9877                 3.3669                 3.5305
 IR Inten    --      9.4050                 0.0000                 0.0001

                     73                     74                     75
                     A'                     A"                     A'
 Frequencies --    833.9530               838.0547               838.2564
 Red. masses --      8.6585                 1.3821                 6.2368
 Frc consts  --      3.5479                 0.5719                 2.5821
 IR Inten    --     23.0145                 0.0000                 8.8054

                     76                     77                     78
                     A"                     A'                     A'
 Frequencies --    862.2337               866.4073               892.1999
 Red. masses --      1.4498                12.0774                 3.5885
 Frc consts  --      0.6350                 5.3415                 1.6830
 IR Inten    --     59.0476                 0.0000               350.5337

                     79                     80                     81
                     A'                     A'                     A'
 Frequencies --    944.1387               944.3489               945.2905
 Red. masses --      1.1042                 1.1042                 1.1048
 Frc consts  --      0.5799                 0.5802                 0.5816
 IR Inten    --      0.0001               129.9687               411.9012

                     82                     83                     84
                     A'                     A"                     A"
 Frequencies --    945.4687               950.6841               950.6951
 Red. masses --      1.1047                 1.7424                 1.7427
 Frc consts  --      0.5818                 0.9278                 0.9280
 IR Inten    --      0.0005                12.9720                 0.0000

                     85                     86                     87
                     A"                     A"                     A"
 Frequencies --    985.8194               985.8458               990.7303
 Red. masses --      1.3933                 1.3934                 1.3883
 Frc consts  --      0.7978                 0.7979                 0.8029
 IR Inten    --      0.0000                 0.0000                 0.0000

                     88                     89                     90
                     A"                     A'                     A'
 Frequencies --    990.7511              1005.0285              1005.3492
 Red. masses --      1.3884                 2.6368                 2.7183
 Frc consts  --      0.8029                 1.5692                 1.6187
 IR Inten    --      0.1948               167.3635                 0.0000

                     91                     92                     93
                     A'                     A'                     A'
 Frequencies --   1012.8187              1013.1077              1013.3908
 Red. masses --      5.0553                 4.9108                 1.9397
 Frc consts  --      3.0553                 2.9697                 1.1737
 IR Inten    --     43.4343                 0.0000                 0.0004

                     94                     95                     96
                     A'                     A'                     A'
 Frequencies --   1013.6020              1079.3901              1117.5395
 Red. masses --      1.9405                12.9144                 2.4264
 Frc consts  --      1.1746                 8.8650                 1.7854
 IR Inten    --    512.7371                 0.0000                 3.9717

                     97                     98                     99
                     A'                     A'                     A'
 Frequencies --   1118.9777              1132.4872              1148.3767
 Red. masses --      7.9296                 3.3437                 1.8945
 Frc consts  --      5.8499                 2.5267                 1.4720
 IR Inten    --     79.2047                 0.0000                 0.0009

                    100                    101                    102
                     A'                     A'                     A'
 Frequencies --   1151.0917              1152.9641              1156.6611
 Red. masses --      2.5400                 1.9627                 2.1564
 Frc consts  --      1.9829                 1.5372                 1.6998
 IR Inten    --    495.8951                 0.0000               425.6680

                    103                    104                    105
                     A'                     A'                     A'
 Frequencies --   1157.1762              1182.3801              1239.4115
 Red. masses --      1.8061                 1.7594                 2.7208
 Frc consts  --      1.4249                 1.4492                 2.4625
 IR Inten    --      7.5905                 0.0000                 0.0000

                    106                    107                    108
                     A'                     A'                     A'
 Frequencies --   1267.6075              1295.9423              1299.4353
 Red. masses --      7.1235                 3.7254                 3.9441
 Frc consts  --      6.7440                 3.6863                 3.9238
 IR Inten    --     37.7529                 0.0000                51.6315

                    109                    110                    111
                     A'                     A'                     A'
 Frequencies --   1322.8291              1332.3931              1340.5400
 Red. masses --      2.9724                 3.2212                 2.4561
 Frc consts  --      3.0645                 3.3692                 2.6005
 IR Inten    --   1189.9092                 0.0000                 0.0003

                    112                    113                    114
                     A'                     A'                     A'
 Frequencies --   1340.8575              1349.0364              1349.2789
 Red. masses --      2.4621                 1.8633                 1.8650
 Frc consts  --      2.6081                 1.9979                 2.0005
 IR Inten    --    649.0423                 0.0000               359.1700

                    115                    116                    117
                     A'                     A'                     A'
 Frequencies --   1353.7469              1354.9549              1366.0760
 Red. masses --      9.3655                 9.9126                 7.1302
 Frc consts  --     10.1124                10.7222                 7.8398
 IR Inten    --   1210.8944                 0.0001                 0.0000

                    118                    119                    120
                     A'                     A'                     A'
 Frequencies --   1367.0149              1367.4091              1368.6391
 Red. masses --      4.2714                 4.3915                 6.3352
 Frc consts  --      4.7030                 4.8379                 6.9918
 IR Inten    --      0.0000               298.6547              1151.2450

                    121                    122                    123
                     A'                     A'                     A'
 Frequencies --   1432.9698              1433.8210              1443.9225
 Red. masses --      6.3391                 6.2492                 4.1698
 Frc consts  --      7.6693                 7.5694                 5.1222
 IR Inten    --    168.0389                 0.0000                 0.0000

                    124                    125                    126
                     A'                     A'                     A'
 Frequencies --   1444.4168              1453.5162              1456.6056
 Red. masses --      4.1827                 4.6333                 5.5516
 Frc consts  --      5.1416                 5.7675                 6.9399
 IR Inten    --      5.0449                14.8415                 0.0000

                    127                    128                    129
                     A'                     A'                     A'
 Frequencies --   1498.0661              1498.1002              1626.4741
 Red. masses --      9.9547                 4.7605                 4.6796
 Frc consts  --     13.1626                 6.2949                 7.2938
 IR Inten    --      0.6557               154.7294                 0.0000

                    130                    131                    132
                     A'                     A'                     A'
 Frequencies --   1627.1519              1630.1541              1630.2742
 Red. masses --      4.6613                 4.8000                 4.7596
 Frc consts  --      7.2713                 7.5153                 7.4532
 IR Inten    --    159.9447                 0.0044               304.0156

                    133                    134                    135
                     A'                     A'                     A'
 Frequencies --   1655.9263              1661.9575              3173.0392
 Red. masses --      8.2375                10.2318                 1.0898
 Frc consts  --     13.3085                16.6511                 6.4649
 IR Inten    --      0.0000                 0.0000                 0.0012

                    136                    137                    138
                     A'                     A'                     A'
 Frequencies --   3173.0420              3173.4059              3173.4063
 Red. masses --      1.0898                 1.0910                 1.0910
 Frc consts  --      6.4649                 6.4731                 6.4731
 IR Inten    --      2.7538                 2.8057                 0.0004

                    139                    140                    141
                     A'                     A'                     A'
 Frequencies --   3179.1795              3179.1806              3219.1971
 Red. masses --      1.0904                 1.0904                 1.0940
 Frc consts  --      6.4933                 6.4933                 6.6796
 IR Inten    --      1.3653                 0.0056                 0.0988

                    142                    143                    144
                     A'                     A'                     A'
 Frequencies --   3220.3023              3867.3941              3867.3976
 Red. masses --      1.0940                 1.0669                 1.0669
 Frc consts  --      6.6843                 9.4014                 9.4014
 IR Inten    --      0.0000                 0.1156                10.6605

                    145                    146                    147
                     A'                     A'                     A'
 Frequencies --   3867.4068              3867.4085              3871.6241
 Red. masses --      1.0669                 1.0669                 1.0653
 Frc consts  --      9.4014                 9.4015                 9.4082
 IR Inten    --     38.8401                 0.2317                 0.1596

                    148                    149                    150
                     A'                     A'                     A'
 Frequencies --   3871.6337              3871.7937              3871.8479
 Red. masses --      1.0653                 1.0653                 1.0654
 Frc consts  --      9.4083                 9.4095                 9.4099
 IR Inten    --    270.3912               110.6195                 0.0044

 - Thermochemistry -
 -------------------
 Temperature   298.150 Kelvin.  Pressure   1.00000 Atm.
 Atom     1 has atomic number  6 and mass  12.00000

 Molecular mass:   490.12001 amu.
 Principal axes and moments of inertia in atomic units:
                           1         2         3
     Eigenvalues --  7377.25507********************
           X            0.00000   1.00000   0.00000
           Y            1.00000  -0.00000   0.00000
           Z            0.00000   0.00000   1.00000
 This molecule is an asymmetric top.
 Rotational symmetry number  1.
 Warning -- assumption of classical behavior for rotation
           may cause significant error
 Rotational temperatures (Kelvin)      0.01174     0.00133     0.00120
 Rotational constants (GHZ):           0.24464     0.02776     0.02493
 Zero-point vibrational energy     954257.0 (Joules/Mol)
                                  228.07289 (Kcal/Mol)
 Warning -- explicit consideration of  56 degrees of freedom as
           vibrations may cause significant error
 Vibrational temperatures:     14.99    19.62    29.66    50.66    54.36
          (Kelvin)             59.24    63.06    63.09    63.52    72.31
                              122.50   122.56   146.48   158.30   186.21
                              225.08   228.13   241.69   245.11   256.63
                              279.58   281.02   342.67   367.46   393.75
                              396.23   431.40   435.14   501.82   504.51
                              507.39   511.60   511.70   513.24   535.27
                              545.17   583.31   583.43   588.21   602.78
                              611.28   642.54   644.07   645.62   684.03
                              736.67   737.01   737.72   752.19   752.33
                              758.96   769.32   791.65   792.02   819.22
                              823.94   930.71   930.82  1002.24  1025.80
                             1025.93  1033.18  1038.44  1038.79  1052.22
                             1057.06  1060.87  1061.14  1069.08  1129.35
                             1176.70  1199.85  1199.87  1205.77  1206.06
                             1240.56  1246.57  1283.68  1358.40  1358.71
                             1360.06  1360.32  1367.82  1367.84  1418.37
                             1418.41  1425.44  1425.47  1446.01  1446.47
                             1457.22  1457.64  1458.04  1458.35  1553.00
                             1607.89  1609.96  1629.40  1652.26  1656.16
                             1658.86  1664.18  1664.92  1701.18  1783.24
                             1823.80  1864.57  1869.60  1903.26  1917.02
                             1928.74  1929.19  1940.96  1941.31  1947.74
                             1949.48  1965.48  1966.83  1967.40  1969.17
                             2061.72  2062.95  2077.48  2078.19  2091.29
                             2095.73  2155.38  2155.43  2340.13  2341.11
                             2345.43  2345.60  2382.51  2391.19  4565.30
                             4565.30  4565.82  4565.82  4574.13  4574.13
                             4631.71  4633.30  5564.32  5564.32  5564.34
                             5564.34  5570.40  5570.42  5570.65  5570.73

 Zero-point correction=                           0.363457 (Hartree/Particle)
 Thermal correction to Energy=                    0.396205
 Thermal correction to Enthalpy=                  0.397149
 Thermal correction to Gibbs Free Energy=         0.294588
 Sum of electronic and zero-point Energies=          -1748.237010
 Sum of electronic and thermal Energies=             -1748.204263
 Sum of electronic and thermal Enthalpies=           -1748.203318
 Sum of electronic and thermal Free Energies=        -1748.305879

                     E (Thermal)             CV                S
                      KCal/Mol        Cal/Mol-Kelvin    Cal/Mol-Kelvin
 Total                  248.622            124.672            215.858
 Electronic               0.000              0.000              0.000
 Translational            0.889              2.981             44.456
 Rotational               0.889              2.981             38.782
 Vibrational            246.845            118.711            132.620
 Vibration     1          0.593              1.987              7.929
 Vibration     2          0.593              1.986              7.394
 Vibration     3          0.593              1.986              6.574
 Vibration     4          0.594              1.982              5.512
 Vibration     5          0.594              1.982              5.372
 Vibration     6          0.594              1.981              5.202
 Vibration     7          0.595              1.980              5.078
 Vibration     8          0.595              1.980              5.077
 Vibration     9          0.595              1.980              5.064
 Vibration    10          0.595              1.977              4.807
 Vibration    11          0.601              1.959              3.769
 Vibration    12          0.601              1.959              3.768
 Vibration    13          0.604              1.948              3.419
 Vibration    14          0.606              1.941              3.269
 Vibration    15          0.612              1.924              2.955
 Vibration    16          0.620              1.895              2.592
 Vibration    17          0.621              1.893              2.567
 Vibration    18          0.625              1.882              2.458
 Vibration    19          0.625              1.879              2.432
 Vibration    20          0.629              1.869              2.345
 Vibration    21          0.635              1.848              2.186
 Vibration    22          0.636              1.846              2.177
 Vibration    23          0.656              1.782              1.817
 Vibration    24          0.666              1.754              1.693
 Vibration    25          0.676              1.722              1.573
 Vibration    26          0.677              1.719              1.562
 Vibration    27          0.692              1.674              1.418
 Vibration    28          0.694              1.669              1.403
 Vibration    29          0.726              1.578              1.172
 Vibration    30          0.728              1.574              1.163
 Vibration    31          0.729              1.570              1.154
 Vibration    32          0.731              1.564              1.141
 Vibration    33          0.731              1.564              1.141
 Vibration    34          0.732              1.561              1.136
 Vibration    35          0.744              1.530              1.071
 Vibration    36          0.749              1.515              1.044
 Vibration    37          0.770              1.458              0.943
 Vibration    38          0.770              1.458              0.943
 Vibration    39          0.773              1.451              0.931
 Vibration    40          0.782              1.429              0.896
 Vibration    41          0.787              1.416              0.876
 Vibration    42          0.806              1.368              0.806
 Vibration    43          0.807              1.366              0.803
 Vibration    44          0.808              1.364              0.800
 Vibration    45          0.832              1.305              0.723
 Vibration    46          0.867              1.223              0.629
 Vibration    47          0.867              1.223              0.628
 Vibration    48          0.868              1.222              0.627
 Vibration    49          0.878              1.200              0.603
 Vibration    50          0.878              1.199              0.603
 Vibration    51          0.882              1.189              0.593
 Vibration    52          0.890              1.173              0.577
 Vibration    53          0.906              1.139              0.544
 Vibration    54          0.906              1.139              0.543
 Vibration    55          0.925              1.097              0.505
 Vibration    56          0.929              1.090              0.499

 Optimization completed.
    -- Stationary point found.
 Normal termination of Gaussian 16 at Fri Nov 25 11:28:49 2022.
