 Gaussian 16, Revision C.01,
 Gaussian 16:  ES64L-G16RevC.01  3-Jul-2019

 --------------------------------------------------------------------
 #P B3LYP/6-311++G(d,p) EmpiricalDispersion=GD3 freq(noraman) SCF=YQC
 --------------------------------------------------------------------

 ------------------------------------------
 Restart from 2_Phenyl_Nitrile_Triazine.log
 ------------------------------------------
 Symbolic Z-matrix:
 Charge =  0 Multiplicity = 1

                         Standard orientation:
 ---------------------------------------------------------------------
 Center     Atomic      Atomic             Coordinates (Angstroms)
 Number     Number       Type             X           Y           Z
 ---------------------------------------------------------------------
      1          6           0       -0.000003    1.403102    0.000000
      2          6           0        0.000003   -1.403102    0.000000
      3          6           0        1.209716    0.693387    0.000000
      4          6           0       -1.209716   -0.693387    0.000000
      5          6           0        1.209718   -0.693381    0.000000
      6          6           0       -1.209718    0.693381    0.000000
      7          1           0       -2.142289    1.241403    0.000000
      8          1           0        2.142289   -1.241403    0.000000
      9          1           0       -2.142284   -1.241413    0.000000
     10          1           0        2.142284    1.241413    0.000000
     11          6           0       -0.000011    2.882529    0.000000
     12          7           0       -1.184343    3.519525    0.000000
     13          6           0       -1.118060    4.847284    0.000000
     14          7           0        1.184343    3.519527    0.000000
     15          6           0        1.118067    4.847267    0.000000
     16          7           0       -0.000003    5.578046    0.000000
     17          1           0        2.060701    5.387519    0.000000
     18          1           0       -2.060702    5.387521    0.000000
     19          6           0        0.000011   -2.882529    0.000000
     20          7           0        1.184343   -3.519525    0.000000
     21          6           0        1.118060   -4.847284    0.000000
     22          7           0       -1.184343   -3.519527    0.000000
     23          6           0       -1.118067   -4.847267    0.000000
     24          7           0        0.000003   -5.578046    0.000000
     25          1           0       -2.060701   -5.387519    0.000000
     26          1           0        2.060702   -5.387521    0.000000
 ---------------------------------------------------------------------

 SCF Done:  E(RB3LYP) =  -790.827862139     a.u. after    6 cycles
 SCF Done:  E(RB3LYP) =  -790.827874007     A.U. after    9 cycles

 The electronic state is 1-AG.
 Alpha  occ. eigenvalues --  -14.34289 -14.34289 -14.34287 -14.34287 -14.34148
 Alpha  occ. eigenvalues --  -14.34148 -10.28387 -10.28387 -10.27237 -10.27237
 Alpha  occ. eigenvalues --  -10.27237 -10.27237 -10.21006 -10.21004 -10.19616
 Alpha  occ. eigenvalues --  -10.19614 -10.19557 -10.19557  -1.04664  -1.04655
 Alpha  occ. eigenvalues --   -0.93032  -0.92765  -0.92277  -0.92272  -0.87962
 Alpha  occ. eigenvalues --   -0.79848  -0.77192  -0.72552  -0.70756  -0.70307
 Alpha  occ. eigenvalues --   -0.68055  -0.63062  -0.62180  -0.57507  -0.56693
 Alpha  occ. eigenvalues --   -0.56141  -0.55843  -0.49820  -0.47645  -0.47560
 Alpha  occ. eigenvalues --   -0.47513  -0.47392  -0.44893  -0.44754  -0.44409
 Alpha  occ. eigenvalues --   -0.43655  -0.40371  -0.39344  -0.38870  -0.38575
 Alpha  occ. eigenvalues --   -0.36671  -0.36621  -0.34880  -0.34868  -0.33754
 Alpha  occ. eigenvalues --   -0.29275  -0.29038  -0.28599  -0.28495  -0.27797
 Alpha  occ. eigenvalues --   -0.26839
 Alpha virt. eigenvalues --   -0.10832  -0.07261  -0.06896  -0.06111  -0.02627
 Alpha virt. eigenvalues --   -0.00858  -0.00162   0.00447   0.00644   0.01363
 Alpha virt. eigenvalues --    0.01387   0.02845   0.03447   0.03552   0.03667

 Mulliken charges:
               1
     1  C    0.617361
     2  C    0.617361
     3  C   -0.617207
     4  C   -0.617207
     5  C   -0.617208
     6  C   -0.617208
     7  H    0.214900
     8  H    0.214900
     9  H    0.214900
    10  H    0.214900
    11  C   -0.240802
    12  N   -0.002292
    13  C    0.075269
    14  N   -0.002292
    15  C    0.075278
    16  N   -0.137565
    17  H    0.209830
    18  H    0.209827
    19  C   -0.240802
    20  N   -0.002292
    21  C    0.075269
    22  N   -0.002292
    23  C    0.075278
    24  N   -0.137565
    25  H    0.209830
    26  H    0.209827
 Sum of Mulliken charges =  -0.00000

 Dipole moment (field-independent basis, Debye):
    X=             -0.0000    Y=             -0.0000    Z=              0.0000  Tot=              0.0000
 Quadrupole moment (field-independent basis, Debye-Ang):
   XX=            -97.0551   YY=           -109.7267   ZZ=           -103.9915
   XY=              0.0001   XZ=              0.0000   YZ=              0.0000

  Exact polarizability:     169.577      -0.000     337.015       0.000       0.000      87.445
 Approx polarizability:     313.725      -0.002     455.797       0.000       0.000     141.437

                      1                      2                      3
                     AU                     AU                     BG
 Frequencies --     32.9639                38.9120                55.5698
 Red. masses --      5.5649                 7.6993                 4.1532
 Frc consts  --      0.0036                 0.0069                 0.0076
 IR Inten    --      0.0000                 0.0006                 0.0000

                      4                      5                      6
                     BU                     BG                     AU
 Frequencies --     90.4729               101.5696               170.2842
 Red. masses --      6.8452                10.1461                10.7926
 Frc consts  --      0.0330                 0.0617                 0.1844
 IR Inten    --      0.0720                 0.0000                 0.0709

                      7                      8                      9
                     AG                     AG                     BG
 Frequencies --    192.9583               223.5282               287.3588
 Red. masses --      5.8840                10.1493                 7.2057
 Frc consts  --      0.1291                 0.2988                 0.3506
 IR Inten    --      0.0000                 0.0000                 0.0000

                     10                     11                     12
                     BG                     AU                     BU
 Frequencies --    353.2579               353.4437               414.6426
 Red. masses --      3.4328                 3.4345                 7.6724
 Frc consts  --      0.2524                 0.2528                 0.7772
 IR Inten    --      0.0000                 0.0000                 3.8506

                     13                     14                     15
                     AU                     BU                     AU
 Frequencies --    415.5737               445.2965               447.0146
 Red. masses --      2.9292                 7.8021                 3.6367
 Frc consts  --      0.2981                 0.9115                 0.4282
 IR Inten    --      0.0000                 5.5958                16.1627

                     16                     17                     18
                     AG                     BG                     AU
 Frequencies --    496.7003               550.2316               595.2801
 Red. masses --      4.7312                 3.0992                 2.4461
 Frc consts  --      0.6877                 0.5528                 0.5107
 IR Inten    --      0.0000                 0.0000                 0.0577

                     19                     20                     21
                     AG                     AG                     BU
 Frequencies --    644.9798               673.3662               711.1965
 Red. masses --      7.1639                 9.1605                 9.3245
 Frc consts  --      1.7559                 2.4472                 2.7788
 IR Inten    --      0.0000                 0.0000                25.1409

                     22                     23                     24
                     AG                     BG                     BU
 Frequencies --    712.9307               732.7042               761.9042
 Red. masses --      9.2670                 4.0207                 7.6193
 Frc consts  --      2.7751                 1.2718                 2.6060
 IR Inten    --      0.0000                 0.0000                67.4641

                     25                     26                     27
                     AG                     AU                     BG
 Frequencies --    817.1543               819.3508               857.3229
 Red. masses --      6.7522                 2.5543                 7.2069
 Frc consts  --      2.6564                 1.0103                 3.1209
 IR Inten    --      0.0000               102.2478                 0.0000

                     28                     29                     30
                     BG                     AU                     BG
 Frequencies --    869.7344               904.0169               974.1380
 Red. masses --      1.2463                 2.3818                 1.5792
 Frc consts  --      0.5555                 1.1468                 0.8829
 IR Inten    --      0.0000                 4.5323                 0.0000

                     31                     32                     33
                     AU                     BG                     AG
 Frequencies --    975.2688              1007.8998              1009.8765
 Red. masses --      1.5802                 1.3049                13.3816
 Frc consts  --      0.8856                 0.7810                 8.0407
 IR Inten    --      1.3833                 0.0000                 0.0000

                     34                     35                     36
                     BU                     AU                     BG
 Frequencies --   1010.5121              1018.1291              1033.3731
 Red. masses --     12.2725                 1.3621                 1.4789
 Frc consts  --      7.3836                 0.8319                 0.9305
 IR Inten    --     41.5160                 0.0000                 0.0000

                     37                     38                     39
                     AU                     BU                     AG
 Frequencies --   1033.4094              1034.6069              1085.2133
 Red. masses --      1.4790                 3.2882                 6.4570
 Frc consts  --      0.9306                 2.0738                 4.4803
 IR Inten    --      0.0000                 7.1588                 0.0000

                     40                     41                     42
                     BU                     BU                     AG
 Frequencies --   1105.1478              1135.9585              1171.9654
 Red. masses --      2.9522                 1.6528                10.7041
 Frc consts  --      2.1244                 1.2566                 8.6623
 IR Inten    --     10.4251                 1.0493                 0.0000

                     43                     44                     45
                     BU                     BU                     AG
 Frequencies --   1176.1987              1180.3017              1180.3353
 Red. masses --      4.2335                 2.8525                 2.9237
 Frc consts  --      3.4507                 2.3413                 2.3999
 IR Inten    --      4.5469                 2.1082                 0.0000

                     46                     47                     48
                     AG                     BU                     AG
 Frequencies --   1209.6354              1261.6041              1274.4703
 Red. masses --      1.1525                 3.9476                 2.9063
 Frc consts  --      0.9935                 3.7019                 2.7813
 IR Inten    --      0.0000                 0.0070                 0.0000

                     49                     50                     51
                     AG                     BU                     BU
 Frequencies --   1335.2694              1347.9243              1355.2472
 Red. masses --      1.3627                 2.5105                 5.5769
 Frc consts  --      1.4314                 2.6875                 6.0351
 IR Inten    --      0.0000               104.4247                20.7580

                     52                     53                     54
                     AG                     AG                     BU
 Frequencies --   1362.3720              1418.3523              1418.3546
 Red. masses --      2.9848                 1.5311                 1.5557
 Frc consts  --      3.2641                 1.8147                 1.8439
 IR Inten    --      0.0000                 0.0000                66.9416

                     55                     56                     57
                     BU                     BU                     AG
 Frequencies --   1436.8045              1443.7471              1457.0802
 Red. masses --      3.2034                 2.2272                 2.6759
 Frc consts  --      3.8963                 2.7352                 3.3472
 IR Inten    --      4.5725               889.9124                 0.0000

                     58                     59                     60
                     BU                     AG                     BU
 Frequencies --   1539.1495              1546.3006              1566.0584
 Red. masses --      2.7252                 7.1542                 7.7446
 Frc consts  --      3.8037                10.0785                11.1910
 IR Inten    --    145.1344                 0.0000               285.8901

                     61                     62                     63
                     BU                     AG                     AG
 Frequencies --   1593.7260              1599.3282              1613.4603
 Red. masses --      5.1920                 5.6163                 7.5121
 Frc consts  --      7.7698                 8.4641                11.5220
 IR Inten    --    997.3093                 0.0000                 0.0000

                     64                     65                     66
                     AG                     AG                     BU
 Frequencies --   1650.4556              3158.1695              3158.1858
 Red. masses --      5.7258                 1.0903                 1.0903
 Frc consts  --      9.1895                 6.4073                 6.4075
 IR Inten    --      0.0000                 0.0000                46.0338

                     67                     68                     69
                     BU                     AG                     BU
 Frequencies --   3161.4074              3161.6213              3201.3381
 Red. masses --      1.0946                 1.0947                 1.0890
 Frc consts  --      6.4458                 6.4473                 6.5755
 IR Inten    --     49.8793                 0.0000                 0.5337

                     70                     71                     72
                     AG                     BU                     AG
 Frequencies --   3202.3113              3214.8433              3216.2721
 Red. masses --      1.0881                 1.0938                 1.0951
 Frc consts  --      6.5744                 6.6604                 6.6744
 IR Inten    --      0.0000                 0.2779                 0.0000

 - Thermochemistry -
 -------------------
 Temperature   298.150 Kelvin.  Pressure   1.00000 Atm.
 Atom     1 has atomic number  6 and mass  12.00000

 Molecular mass:   236.08104 amu.
 Principal axes and moments of inertia in atomic units:
                           1         2         3
     Eigenvalues --   872.88918********************
           X           -0.00000   1.00000   0.00000
           Y            1.00000   0.00000   0.00000
           Z            0.00000   0.00000   1.00000
 This molecule is an asymmetric top.
 Rotational symmetry number  2.
 Warning -- assumption of classical behavior for rotation
           may cause significant error
 Rotational temperatures (Kelvin)      0.09923     0.00786     0.00728
 Rotational constants (GHZ):           2.06755     0.16376     0.15175
 Zero-point vibrational energy     501268.5 (Joules/Mol)
                                  119.80604 (Kcal/Mol)
 Warning -- explicit consideration of  18 degrees of freedom as
           vibrations may cause significant error
 Vibrational temperatures:     47.43    55.99    79.95   130.17   146.14
          (Kelvin)            245.00   277.62   321.61   413.45   508.26
                              508.53   596.58   597.92   640.68   643.15
                              714.64   791.66   856.48   927.98   968.82
                             1023.25  1025.75  1054.20  1096.21  1175.70
                             1178.86  1233.50  1251.35  1300.68  1401.57
                             1403.19  1450.14  1452.99  1453.90  1464.86
                             1486.79  1486.85  1488.57  1561.38  1590.06
                             1634.39  1686.20  1692.29  1698.19  1698.24
                             1740.40  1815.17  1833.68  1921.15  1939.36
                             1949.90  1960.15  2040.69  2040.70  2067.24
                             2077.23  2096.41  2214.49  2224.78  2253.21
                             2293.02  2301.08  2321.41  2374.64  4543.90
                             4543.92  4548.56  4548.87  4606.01  4607.41
                             4625.44  4627.50

 Zero-point correction=                           0.190923 (Hartree/Particle)
 Thermal correction to Energy=                    0.203943
 Thermal correction to Enthalpy=                  0.204887
 Thermal correction to Gibbs Free Energy=         0.149651
 Sum of electronic and zero-point Energies=           -790.636951
 Sum of electronic and thermal Energies=              -790.623931
 Sum of electronic and thermal Enthalpies=            -790.622987
 Sum of electronic and thermal Free Energies=         -790.678223

                     E (Thermal)             CV                S
                      KCal/Mol        Cal/Mol-Kelvin    Cal/Mol-Kelvin
 Total                  127.976             49.864            116.253
 Electronic               0.000              0.000              0.000
 Translational            0.889              2.981             42.279
 Rotational               0.889              2.981             31.726
 Vibrational            126.198             43.903             42.249
 Vibration     1          0.594              1.983              5.643
 Vibration     2          0.594              1.981              5.314
 Vibration     3          0.596              1.975              4.609
 Vibration     4          0.602              1.956              3.650
 Vibration     5          0.604              1.948              3.424
 Vibration     6          0.625              1.879              2.432
 Vibration     7          0.635              1.850              2.199
 Vibration     8          0.649              1.805              1.930
 Vibration     9          0.685              1.697              1.489
 Vibration    10          0.729              1.569              1.152
 Vibration    11          0.730              1.568              1.151
 Vibration    12          0.778              1.438              0.910
 Vibration    13          0.779              1.436              0.907
 Vibration    14          0.805              1.371              0.810
 Vibration    15          0.806              1.367              0.805
 Vibration    16          0.852              1.257              0.666
 Vibration    17          0.906              1.139              0.544
 Vibration    18          0.953              1.042              0.458

 Optimization completed.
    -- Stationary point found.
 Normal termination of Gaussian 16 at Sun Aug  2 07:57:28 2020.
