 Gaussian 16, Revision C.01,
 Gaussian 16:  ES64L-G16RevC.01  3-Jul-2019

 --------------------------------------------------------------------
 #P B3LYP/6-311++G(d,p) EmpiricalDispersion=GD3 freq(noraman) SCF=YQC
 --------------------------------------------------------------------

 ---------------------------------------------------
 Restart from BiPhenyl_BoronicAcid_BoronateEster.log
 ---------------------------------------------------
 Symbolic Z-matrix:
 Charge =  0 Multiplicity = 1

                         Standard orientation:
 ---------------------------------------------------------------------
 Center     Atomic      Atomic             Coordinates (Angstroms)
 Number     Number       Type             X           Y           Z
 ---------------------------------------------------------------------
      1          6           0        0.000000    3.572666   -0.000002
      2          6           0        0.414356    2.849729    1.130603
      3          6           0        0.413751    1.460700    1.132137
      4          6           0        0.000000    0.740935   -0.000002
      5          6           0       -0.413752    1.460700   -1.132141
      6          6           0       -0.414356    2.849730   -1.130607
      7          6           0       -0.000000   -0.740935   -0.000002
      8          6           0        0.413752   -1.460700   -1.132141
      9          6           0        0.414356   -2.849730   -1.130607
     10          6           0       -0.000000   -3.572666   -0.000002
     11          6           0       -0.414356   -2.849729    1.130603
     12          6           0       -0.413751   -1.460700    1.132137
     13          1           0        0.747274   -3.386349   -2.012388
     14          1           0       -0.747274    3.386349   -2.012388
     15          1           0       -0.747274   -3.386349    2.012384
     16          1           0        0.747274    3.386349    2.012384
     17          1           0        0.760809   -0.924295   -2.007885
     18          1           0       -0.760809    0.924295   -2.007885
     19          1           0        0.760809    0.924295    2.007881
     20          1           0       -0.760809   -0.924295    2.007881
     21          5           0        0.000001    5.108595   -0.000001
     22          8           0        0.398737    5.901704    1.074929
     23          8           0       -0.398734    5.901708   -1.074930
     24          6           0        0.242467    7.204202    0.653434
     25          6           0       -0.242465    7.204204   -0.653432
     26          6           0        0.497290    8.375317    1.340128
     27          6           0       -0.497286    8.375319   -1.340124
     28          6           0        0.243170    9.570936    0.655206
     29          6           0       -0.243164    9.570938   -0.655200
     30          1           0        0.873889    8.361760    2.354873
     31          1           0       -0.873884    8.361765   -2.354869
     32          1           0        0.428324   10.514706    1.154182
     33          1           0       -0.428317   10.514709   -1.154174
     34          5           0       -0.000001   -5.108595   -0.000001
     35          8           0       -0.398737   -5.901704    1.074929
     36          8           0        0.398734   -5.901708   -1.074930
     37          6           0       -0.242467   -7.204202    0.653434
     38          6           0        0.242465   -7.204204   -0.653432
     39          6           0       -0.497290   -8.375317    1.340128
     40          6           0        0.497286   -8.375319   -1.340124
     41          6           0       -0.243170   -9.570936    0.655206
     42          6           0        0.243164   -9.570938   -0.655200
     43          1           0       -0.873889   -8.361760    2.354873
     44          1           0        0.873884   -8.361765   -2.354869
     45          1           0       -0.428324  -10.514706    1.154182
     46          1           0        0.428317  -10.514709   -1.154174
 ---------------------------------------------------------------------

 SCF Done:  E(RB3LYP) =  -1275.38342011     a.u. after    6 cycles
 SCF Done:  E(RB3LYP) =  -1275.38343259     A.U. after    9 cycles

 The electronic state is 1-A.
 Alpha  occ. eigenvalues --  -19.17086 -19.17086 -19.17084 -19.17084 -10.24261
 Alpha  occ. eigenvalues --  -10.24261 -10.24206 -10.24206 -10.20125 -10.20095
 Alpha  occ. eigenvalues --  -10.19060 -10.19060 -10.19059 -10.19059 -10.18777
 Alpha  occ. eigenvalues --  -10.18777 -10.18777 -10.18777 -10.18665 -10.18665
 Alpha  occ. eigenvalues --  -10.18612 -10.18612 -10.18534 -10.18534 -10.18533
 Alpha  occ. eigenvalues --  -10.18533 -10.17369 -10.17369  -6.79939  -6.79939
 Alpha  occ. eigenvalues --   -1.11835  -1.11835  -1.04339  -1.04339  -0.88339
 Alpha  occ. eigenvalues --   -0.86824  -0.86755  -0.85918  -0.79218  -0.76686
 Alpha  occ. eigenvalues --   -0.76653  -0.76328  -0.75614  -0.75190  -0.74629
 Alpha  occ. eigenvalues --   -0.73055  -0.64644  -0.63700  -0.63478  -0.63146
 Alpha  occ. eigenvalues --   -0.62842  -0.61986  -0.60194  -0.60112  -0.58380
 Alpha  occ. eigenvalues --   -0.57826  -0.54044  -0.52928  -0.52746  -0.52712
 Alpha  occ. eigenvalues --   -0.52529  -0.49880  -0.48059  -0.47762  -0.47761
 Alpha  occ. eigenvalues --   -0.47576  -0.46506  -0.45986  -0.45946  -0.45830
 Alpha  occ. eigenvalues --   -0.45168  -0.44966  -0.43687  -0.42964  -0.42066
 Alpha  occ. eigenvalues --   -0.41854  -0.41074  -0.39236  -0.38850  -0.38823
 Alpha  occ. eigenvalues --   -0.38514  -0.38513  -0.38049  -0.37914  -0.37698
 Alpha  occ. eigenvalues --   -0.36182  -0.36103  -0.36069  -0.35767  -0.35756
 Alpha  occ. eigenvalues --   -0.35697  -0.34605  -0.34322  -0.29599  -0.26857
 Alpha  occ. eigenvalues --   -0.26843  -0.26237  -0.26236  -0.26011  -0.24267
 Alpha  occ. eigenvalues --   -0.23239
 Alpha virt. eigenvalues --   -0.07242  -0.03629  -0.02641  -0.02375  -0.02266
 Alpha virt. eigenvalues --   -0.01772  -0.00927  -0.00852  -0.00840  -0.00594
 Alpha virt. eigenvalues --   -0.00326   0.00420   0.00430   0.00914   0.01326

 Mulliken charges:
               1
     1  C   -0.642954
     2  C   -0.319662
     3  C   -0.345277
     4  C    0.969824
     5  C   -0.345280
     6  C   -0.319662
     7  C    0.969824
     8  C   -0.345280
     9  C   -0.319662
    10  C   -0.642954
    11  C   -0.319662
    12  C   -0.345277
    13  H    0.210591
    14  H    0.210591
    15  H    0.210591
    16  H    0.210591
    17  H    0.164188
    18  H    0.164188
    19  H    0.164188
    20  H    0.164188
    21  B    0.660966
    22  O   -0.164404
    23  O   -0.164405
    24  C    0.166071
    25  C    0.166072
    26  C   -0.308341
    27  C   -0.308341
    28  C   -0.241100
    29  C   -0.241100
    30  H    0.174954
    31  H    0.174954
    32  H    0.169063
    33  H    0.169063
    34  B    0.660966
    35  O   -0.164404
    36  O   -0.164405
    37  C    0.166071
    38  C    0.166072
    39  C   -0.308341
    40  C   -0.308341
    41  C   -0.241100
    42  C   -0.241100
    43  H    0.174954
    44  H    0.174954
    45  H    0.169063
    46  H    0.169063
 Sum of Mulliken charges =  -0.00000

 Dipole moment (field-independent basis, Debye):
    X=             -0.0000    Y=             -0.0000    Z=              0.0000  Tot=              0.0000
 Quadrupole moment (field-independent basis, Debye-Ang):
   XX=           -177.8500   YY=           -138.2131   ZZ=           -160.9338
   XY=              0.0000   XZ=             -0.0000   YZ=              0.0000

  Exact polarizability:     173.164       0.000     621.925       0.000      -0.000     274.982
 Approx polarizability:     288.569       0.000     721.856      -0.000       0.000     508.945

                      1                      2                      3
                      B                      A                      A
 Frequencies --     13.7864                21.7627                26.2802
 Red. masses --      6.4520                 6.3099                 5.1729
 Frc consts  --      0.0007                 0.0018                 0.0021
 IR Inten    --      0.1043                 0.0674                 0.0000

                      4                      5                      6
                      A                      B                      B
 Frequencies --     40.9932                48.8480                55.5968
 Red. masses --      6.8229                 4.1056                 6.5444
 Frc consts  --      0.0068                 0.0058                 0.0119
 IR Inten    --      0.0015                 0.0000                 0.0521

                      7                      8                      9
                      B                      A                      A
 Frequencies --     76.5622                82.8226               102.5569
 Red. masses --      7.0236                 3.7808                 6.4473
 Frc consts  --      0.0243                 0.0153                 0.0400
 IR Inten    --      0.6978                 0.0000                 0.4371

                     10                     11                     12
                      A                      A                      B
 Frequencies --    128.8331               152.8011               187.0116
 Red. masses --      8.5276                 6.3936                 6.4786
 Frc consts  --      0.0834                 0.0880                 0.1335
 IR Inten    --      0.0000                 0.0749                 1.1615

                     13                     14                     15
                      B                      A                      B
 Frequencies --    243.1000               243.1319               266.8066
 Red. masses --      6.7465                 6.7501                 7.4188
 Frc consts  --      0.2349                 0.2351                 0.3112
 IR Inten    --      0.0005                 0.0000                 0.0258

                     16                     17                     18
                      A                      B                      A
 Frequencies --    272.0991               277.9734               316.5732
 Red. masses --      6.1841                 6.2667                 5.1780
 Frc consts  --      0.2698                 0.2853                 0.3057
 IR Inten    --      0.6735                 0.5461                 0.6933

                     19                     20                     21
                      B                      A                      B
 Frequencies --    320.8231               367.3205               406.1270
 Red. masses --      5.9846                 5.7275                 4.1354
 Frc consts  --      0.3629                 0.4553                 0.4019
 IR Inten    --      0.0663                 0.1220                 0.0397

                     22                     23                     24
                      B                      A                      A
 Frequencies --    409.4881               415.0579               430.1356
 Red. masses --      2.8788                 3.0769                 5.8919
 Frc consts  --      0.2844                 0.3123                 0.6423
 IR Inten    --      1.2197                 0.0000                 0.0000

                     25                     26                     27
                      A                      B                      B
 Frequencies --    433.8358               435.1660               499.4518
 Red. masses --      3.1897                 3.3541                 5.1888
 Frc consts  --      0.3537                 0.3742                 0.7626
 IR Inten    --      1.2366                 9.1761                 5.4716

                     28                     29                     30
                      A                      B                      A
 Frequencies --    510.2574               531.1982               562.6729
 Red. masses --      7.2532                 4.3404                 2.9623
 Frc consts  --      1.1126                 0.7216                 0.5526
 IR Inten    --      0.1921                 6.4191                 2.6923

                     31                     32                     33
                      B                      B                      A
 Frequencies --    567.2102               582.3842               582.4232
 Red. masses --      8.1397                 4.0260                 4.0252
 Frc consts  --      1.5429                 0.8045                 0.8045
 IR Inten    --      0.3864                 0.0003                 0.0000

                     34                     35                     36
                      A                      B                      A
 Frequencies --    586.7521               622.0957               622.4590
 Red. masses --      7.8172                 7.2742                 7.2697
 Frc consts  --      1.5857                 1.6586                 1.6595
 IR Inten    --      0.0000                 0.0224                 0.2849

                     37                     38                     39
                      B                      A                      B
 Frequencies --    643.7439               655.4665               679.1041
 Red. masses --      7.1012                 6.9841                 7.7022
 Frc consts  --      1.7338                 1.7679                 2.0929
 IR Inten    --      0.0720                 0.1605                 0.0999

                     40                     41                     42
                      B                      A                      B
 Frequencies --    680.6527               682.7804               750.3686
 Red. masses --      5.0173                 4.2006                 1.4221
 Frc consts  --      1.3695                 1.1538                 0.4718
 IR Inten    --     42.0158                 7.2778                95.5116

                     43                     44                     45
                      A                      B                      A
 Frequencies --    751.3059               751.7093               751.7233
 Red. masses --      1.2553                 4.8726                 4.8720
 Frc consts  --      0.4175                 1.6222                 1.6221
 IR Inten    --     22.5692                 0.0000                 0.0000

                     46                     47                     48
                      A                      B                      A
 Frequencies --    756.7099               757.0367               775.8563
 Red. masses --      6.8813                 2.9494                 4.0525
 Frc consts  --      2.3216                 0.9959                 1.4373
 IR Inten    --      0.0000                99.2016                 1.4862

                     49                     50                     51
                      B                      A                      B
 Frequencies --    816.4204               822.7666               830.6304
 Red. masses --      6.0999                 5.8277                10.5170
 Frc consts  --      2.3955                 2.3243                 4.2752
 IR Inten    --     75.3070                 0.0000                21.1237

                     52                     53                     54
                      A                      B                      B
 Frequencies --    834.6343               843.9100               857.0645
 Red. masses --     10.4554                 1.5445                 1.4186
 Frc consts  --      4.2913                 0.6481                 0.6140
 IR Inten    --      0.0000                42.3713                 0.0001

                     55                     56                     57
                      A                      B                      A
 Frequencies --    857.0739               862.2062               864.7748
 Red. masses --      1.4187                 1.2494                 1.2480
 Frc consts  --      0.6140                 0.5472                 0.5499
 IR Inten    --      0.0000                 0.1938                 0.0000

                     58                     59                     60
                      A                      B                      A
 Frequencies --    876.9551               877.1229               879.5174
 Red. masses --      6.1291                 7.0883                 1.8692
 Frc consts  --      2.7772                 3.2130                 0.8519
 IR Inten    --     11.9762                 1.0530                 3.6623

                     61                     62                     63
                      A                      B                      B
 Frequencies --    931.7970               931.8012               967.2850
 Red. masses --      1.3751                 1.3751                 1.2509
 Frc consts  --      0.7035                 0.7035                 0.6896
 IR Inten    --      1.0517                 7.8144                 0.0000

                     64                     65                     66
                      A                      B                      A
 Frequencies --    967.3071               985.5293               989.5855
 Red. masses --      1.2510                 1.3147                 1.3450
 Frc consts  --      0.6897                 0.7523                 0.7760
 IR Inten    --      0.0000                 0.0011                 0.0137

                     67                     68                     69
                      B                      A                      B
 Frequencies --    998.0968               999.4911              1021.6827
 Red. masses --      1.3743                 1.3745                 6.8810
 Frc consts  --      0.8066                 0.8090                 4.2319
 IR Inten    --      0.9994                 0.0000                42.6164

                     70                     71                     72
                      B                      A                      A
 Frequencies --   1023.2301              1023.2792              1036.4756
 Red. masses --      2.0216                 2.0167                 3.5118
 Frc consts  --      1.2471                 1.2442                 2.2228
 IR Inten    --      9.4339                 0.0000                 0.0000

                     73                     74                     75
                      B                      A                      B
 Frequencies --   1041.2566              1090.4840              1095.2699
 Red. masses --      3.6986                 3.9045                 2.7219
 Frc consts  --      2.3627                 2.7356                 1.9238
 IR Inten    --    101.6932                 0.0000               214.8815

                     76                     77                     78
                      A                      B                      A
 Frequencies --   1097.2814              1097.4114              1138.3686
 Red. masses --      3.7484                 3.7159                 1.6528
 Frc consts  --      2.6591                 2.6366                 1.2619
 IR Inten    --      7.9750                 1.0233                46.3609

                     79                     80                     81
                      B                      B                      A
 Frequencies --   1138.9965              1152.5073              1153.1018
 Red. masses --      1.5210                 1.6446                 1.7147
 Frc consts  --      1.1625                 1.2870                 1.3433
 IR Inten    --      5.6739                 2.0993                12.1848

                     82                     83                     84
                      B                      A                      B
 Frequencies --   1181.5403              1181.5772              1220.3358
 Red. masses --      1.1517                 1.1512                 1.1421
 Frc consts  --      0.9473                 0.9470                 1.0021
 IR Inten    --     25.7806                 0.0000                61.4267

                     85                     86                     87
                      A                      A                      B
 Frequencies --   1228.1837              1247.2923              1247.8455
 Red. masses --      1.1520                 6.1899                 7.0719
 Frc consts  --      1.0238                 5.6737                 6.4879
 IR Inten    --      0.0000                76.2335                12.1423

                     88                     89                     90
                      B                      A                      A
 Frequencies --   1256.9206              1258.9853              1299.8783
 Red. masses --      4.4170                 4.3792                 1.8938
 Frc consts  --      4.1114                 4.0897                 1.8853
 IR Inten    --    861.4586                 0.0000                 0.0018

                     91                     92                     93
                      B                      A                      A
 Frequencies --   1300.0220              1300.3938              1307.0256
 Red. masses --      1.5084                 3.0728                 3.4019
 Frc consts  --      1.5020                 3.0615                 3.4241
 IR Inten    --      0.6629                15.8451                 0.0000

                     94                     95                     96
                      B                      A                      B
 Frequencies --   1320.4411              1339.2843              1343.7544
 Red. masses --      6.5231                 1.4655                 1.4459
 Frc consts  --      6.7011                 1.5488                 1.5382
 IR Inten    --      0.7140                 4.6988                 0.4218

                     97                     98                     99
                      B                      A                      B
 Frequencies --   1354.9171              1361.4810              1400.2291
 Red. masses --      5.3845                 5.5574                 4.1433
 Frc consts  --      5.8240                 6.0694                 4.7862
 IR Inten    --   1491.3054                 0.0000               652.9613

                    100                    101                    102
                      A                      A                      B
 Frequencies --   1405.5565              1423.9822              1438.8745
 Red. masses --      4.6168                 2.4884                 2.6675
 Frc consts  --      5.3738                 2.9729                 3.2539
 IR Inten    --      0.0000                24.6389                 4.2180

                    103                    104                    105
                      B                      A                      B
 Frequencies --   1497.1502              1497.1510              1498.2720
 Red. masses --      2.4627                 2.4627                 2.9844
 Frc consts  --      3.2523                 3.2523                 3.9472
 IR Inten    --      0.4116                 2.9415               255.6145

                    106                    107                    108
                      A                      B                      A
 Frequencies --   1498.7181              1538.1698              1559.2466
 Red. masses --      3.0286                 2.4876                 2.8433
 Frc consts  --      4.0081                 3.4677                 4.0729
 IR Inten    --      0.0000                42.3483                 0.0000

                    109                    110                    111
                      A                      B                      A
 Frequencies --   1568.4627              1594.9087              1644.7609
 Red. masses --      5.4452                 6.5260                 7.4671
 Frc consts  --      7.8924                 9.7806                11.9016
 IR Inten    --      6.8271                 0.3617                 5.2233

                    112                    113                    114
                      B                      A                      B
 Frequencies --   1644.8095              1646.8021              1649.0294
 Red. masses --      7.4649                 5.5280                 5.7354
 Frc consts  --     11.8989                 8.8328                 9.1891
 IR Inten    --      0.7659                 0.0000               189.9140

                    115                    116                    117
                      A                      B                      B
 Frequencies --   1654.5651              1654.6436              3163.5988
 Red. masses --      7.1047                 7.0024                 1.0878
 Frc consts  --     11.4594                11.2955                 6.4144
 IR Inten    --      0.0000                59.8594                24.1753

                    118                    119                    120
                      B                      A                      A
 Frequencies --   3163.9326              3166.1613              3166.8825
 Red. masses --      1.0872                 1.0880                 1.0872
 Frc consts  --      6.4122                 6.4258                 6.4244
 IR Inten    --      0.0752                 0.0000                 0.9252

                    121                    122                    123
                      A                      B                      B
 Frequencies --   3171.7083              3171.7104              3179.9896
 Red. masses --      1.0867                 1.0867                 1.0943
 Frc consts  --      6.4409                 6.4409                 6.5201
 IR Inten    --      2.8119                 0.3944                 4.7188

                    124                    125                    126
                      B                      A                      A
 Frequencies --   3182.0047              3182.9402              3185.3277
 Red. masses --      1.0953                 1.0934                 1.0950
 Frc consts  --      6.5341                 6.5265                 6.5461
 IR Inten    --      0.7654                25.3564                 0.0000

                    127                    128                    129
                      B                      A                      A
 Frequencies --   3186.2549              3186.2600              3200.2515
 Red. masses --      1.0913                 1.0913                 1.0941
 Frc consts  --      6.5274                 6.5274                 6.6019
 IR Inten    --     25.6200                 0.0000                10.7659

                    130                    131                    132
                      B                      B                      A
 Frequencies --   3200.2516              3203.6440              3203.6527
 Red. masses --      1.0941                 1.0963                 1.0963
 Frc consts  --      6.6019                 6.6295                 6.6296
 IR Inten    --      1.4993                 9.1248                 0.0000

 - Thermochemistry -
 -------------------
 Temperature   298.150 Kelvin.  Pressure   1.00000 Atm.
 Atom     1 has atomic number  6 and mass  12.00000

 Molecular mass:   390.12347 amu.
 Principal axes and moments of inertia in atomic units:
                           1         2         3
     Eigenvalues --  1560.48376********************
           X            0.00000   0.00000   1.00000
           Y            1.00000   0.00000  -0.00000
           Z            0.00000   1.00000   0.00000
 This molecule is an asymmetric top.
 Rotational symmetry number  2.
 Warning -- assumption of classical behavior for rotation
           may cause significant error
 Rotational temperatures (Kelvin)      0.05550     0.00165     0.00161
 Rotational constants (GHZ):           1.15653     0.03438     0.03362
 Zero-point vibrational energy     913121.2 (Joules/Mol)
                                  218.24122 (Kcal/Mol)
 Warning -- explicit consideration of  34 degrees of freedom as
           vibrations may cause significant error
 Vibrational temperatures:     19.84    31.31    37.81    58.98    70.28
          (Kelvin)             79.99   110.16   119.16   147.56   185.36
                              219.85   269.07   349.77   349.81   383.88
                              391.49   399.94   455.48   461.59   528.49
                              584.33   589.16   597.18   618.87   624.19
                              626.11   718.60   734.15   764.28   809.56
                              816.09   837.92   837.98   844.21   895.06
                              895.58   926.20   943.07   977.08   979.31
                              982.37  1079.61  1080.96  1081.54  1081.56
                             1088.74  1089.21  1116.28  1174.65  1183.78
                             1195.09  1200.85  1214.20  1233.12  1233.14
                             1240.52  1244.22  1261.74  1261.98  1265.43
                             1340.65  1340.65  1391.71  1391.74  1417.96
                             1423.79  1436.04  1438.04  1469.97  1472.20
                             1472.27  1491.26  1498.14  1568.96  1575.85
                             1578.74  1578.93  1637.86  1638.76  1658.20
                             1659.06  1699.97  1700.03  1755.79  1767.08
                             1794.58  1795.37  1808.43  1811.40  1870.24
                             1870.44  1870.98  1880.52  1899.82  1926.93
                             1933.36  1949.42  1958.87  2014.62  2022.28
                             2048.79  2070.22  2154.07  2154.07  2155.68
                             2156.32  2213.08  2243.41  2256.67  2294.72
                             2366.44  2366.51  2369.38  2372.59  2380.55
                             2380.66  4551.71  4552.19  4555.40  4556.44
                             4563.38  4563.38  4575.30  4578.20  4579.54
                             4582.98  4584.31  4584.32  4604.45  4604.45
                             4609.33  4609.34

 Zero-point correction=                           0.347790 (Hartree/Particle)
 Thermal correction to Energy=                    0.370073
 Thermal correction to Enthalpy=                  0.371017
 Thermal correction to Gibbs Free Energy=         0.293456
 Sum of electronic and zero-point Energies=          -1275.035643
 Sum of electronic and thermal Energies=             -1275.013360
 Sum of electronic and thermal Enthalpies=           -1275.012416
 Sum of electronic and thermal Free Energies=        -1275.089976

                     E (Thermal)             CV                S
                      KCal/Mol        Cal/Mol-Kelvin    Cal/Mol-Kelvin
 Total                  232.224             89.959            163.241
 Electronic               0.000              0.000              0.000
 Translational            0.889              2.981             43.776
 Rotational               0.889              2.981             35.351
 Vibrational            230.447             83.997             84.114
 Vibration     1          0.593              1.986              7.373
 Vibration     2          0.593              1.985              6.466
 Vibration     3          0.593              1.985              6.092
 Vibration     4          0.594              1.981              5.211
 Vibration     5          0.595              1.978              4.863
 Vibration     6          0.596              1.975              4.608
 Vibration     7          0.599              1.965              3.977
 Vibration     8          0.600              1.961              3.823
 Vibration     9          0.605              1.947              3.405
 Vibration    10          0.611              1.924              2.963
 Vibration    11          0.619              1.900              2.637
 Vibration    12          0.632              1.858              2.257
 Vibration    13          0.659              1.774              1.780
 Vibration    14          0.659              1.774              1.780
 Vibration    15          0.672              1.734              1.617
 Vibration    16          0.675              1.725              1.583
 Vibration    17          0.679              1.714              1.546
 Vibration    18          0.703              1.642              1.328
 Vibration    19          0.706              1.634              1.306
 Vibration    20          0.740              1.539              1.091
 Vibration    21          0.771              1.457              0.940
 Vibration    22          0.774              1.450              0.928
 Vibration    23          0.778              1.438              0.909
 Vibration    24          0.791              1.405              0.858
 Vibration    25          0.795              1.396              0.846
 Vibration    26          0.796              1.394              0.842
 Vibration    27          0.855              1.251              0.659
 Vibration    28          0.865              1.227              0.633
 Vibration    29          0.886              1.181              0.585
 Vibration    30          0.918              1.112              0.519
 Vibration    31          0.923              1.102              0.510
 Vibration    32          0.939              1.069              0.481
 Vibration    33          0.939              1.069              0.481
 Vibration    34          0.944              1.060              0.473

 Optimization completed.
    -- Stationary point found.
 Normal termination of Gaussian 16 at Sun Aug  2 11:26:55 2020.
