 Gaussian 16, Revision C.01,
 Gaussian 16:  ES64L-G16RevC.01  3-Jul-2019

 ----------------------------------------------------------------------
 #P B3LYP/6-311++G(d,p) EmpiricalDispersion=GD3 freq(noraman) SCF=YQC N
 oSymm
 ----------------------------------------------------------------------

 -------------------------------------------
 Restart from F_PrimaryAmine_Ketoenamine.log
 -------------------------------------------
 Symbolic Z-matrix:
 Charge =  0 Multiplicity = 1

                          Input orientation:
 ---------------------------------------------------------------------
 Center     Atomic      Atomic             Coordinates (Angstroms)
 Number     Number       Type             X           Y           Z
 ---------------------------------------------------------------------
      1          9           0        1.126661   -2.475095    0.176926
      2          6           0        0.605817   -1.234122    0.091316
      3          6           0       -0.772579   -1.115577    0.119649
      4          9           0       -1.510863   -2.233014    0.236860
      5          6           0       -1.440451    0.114832    0.028968
      6          6           0       -0.605964    1.234592   -0.091277
      7          9           0       -1.126801    2.475568   -0.176886
      8          6           0        0.772432    1.116046   -0.119610
      9          9           0        1.510714    2.233483   -0.236820
     10          6           0        1.440304   -0.114364   -0.028930
     11          1           0       -7.164757   -2.467526    0.065815
     12          6           0       -7.801820   -1.601839    0.197011
     13          6           0       -9.183824   -1.732829    0.264360
     14          1           0       -9.638156   -2.713290    0.176586
     15          6           0       -9.985667   -0.605033    0.447538
     16          1           0      -11.063703   -0.706815    0.503868
     17          6           0       -9.396390    0.653002    0.562430
     18          1           0      -10.013870    1.530774    0.715665
     19          6           0       -8.012335    0.786014    0.483809
     20          1           0       -7.574321    1.770354    0.590604
     21          6           0       -7.198480   -0.339985    0.297798
     22          6           0       -5.703499   -0.269078    0.221083
     23          8           0       -5.041745   -1.316221    0.338413
     24          6           0       -5.052540    1.007923   -0.006453
     25          6           0       -3.695406    1.147418   -0.072892
     26          1           0       -5.640918    1.900061   -0.157722
     27          7           0       -2.825908    0.109631    0.073274
     28          1           0       -3.264174    2.120966   -0.252751
     29          1           0       -3.299973   -0.791659    0.214258
     30          1           0        7.165346    2.467421   -0.065798
     31          6           0        7.802207    1.601590   -0.197020
     32          6           0        9.184239    1.732267   -0.264435
     33          1           0        9.638797    2.712625   -0.176687
     34          6           0        9.985816    0.604288   -0.447646
     35          1           0       11.063873    0.705825   -0.504028
     36          6           0        9.396249   -0.653615   -0.562504
     37          1           0       10.013523   -1.531528   -0.715763
     38          6           0        8.012168   -0.786314   -0.483818
     39          1           0        7.573923   -1.770555   -0.590583
     40          6           0        7.198579    0.339872   -0.297775
     41          6           0        5.703592    0.269294   -0.220979
     42          8           0        5.042092    1.316598   -0.338331
     43          6           0        5.052389   -1.007606    0.006506
     44          6           0        3.695231   -1.146980    0.072923
     45          1           0        5.640645   -1.899827    0.157756
     46          7           0        2.825760   -0.109173   -0.073237
     47          1           0        3.263936   -2.120505    0.252760
     48          1           0        3.299852    0.792106   -0.214230
 ---------------------------------------------------------------------

 SCF Done:  E(RB3LYP) =  -1583.95723392     a.u. after    7 cycles
 SCF Done:  E(RB3LYP) =  -1583.95725461     A.U. after   11 cycles

 Alpha  occ. eigenvalues --  -24.73132 -24.73131 -24.72761 -24.72760 -19.10947
 Alpha  occ. eigenvalues --  -19.10946 -14.38265 -14.38263 -10.30314 -10.30313
 Alpha  occ. eigenvalues --  -10.30062 -10.30060 -10.27142 -10.27141 -10.26464
 Alpha  occ. eigenvalues --  -10.26463 -10.24818 -10.24818 -10.19367 -10.19366
 Alpha  occ. eigenvalues --  -10.19228 -10.19228 -10.19030 -10.19029 -10.18797
 Alpha  occ. eigenvalues --  -10.18797 -10.18610 -10.18610 -10.18450 -10.18449
 Alpha  occ. eigenvalues --  -10.18049 -10.18049  -1.27807  -1.27733  -1.26307
 Alpha  occ. eigenvalues --   -1.26254  -1.04198  -1.04192  -0.99741  -0.99270
 Alpha  occ. eigenvalues --   -0.90763  -0.87183  -0.87183  -0.82856  -0.79928
 Alpha  occ. eigenvalues --   -0.79576  -0.78132  -0.77071  -0.76147  -0.76108
 Alpha  occ. eigenvalues --   -0.75148  -0.70210  -0.68496  -0.67532  -0.65950
 Alpha  occ. eigenvalues --   -0.64214  -0.63079  -0.62003  -0.61739  -0.61318
 Alpha  occ. eigenvalues --   -0.60631  -0.59434  -0.57693  -0.56962  -0.56608
 Alpha  occ. eigenvalues --   -0.55453  -0.55074  -0.53856  -0.53748  -0.53036
 Alpha  occ. eigenvalues --   -0.51632  -0.51407  -0.49655  -0.49092  -0.48769
 Alpha  occ. eigenvalues --   -0.48654  -0.48121  -0.48091  -0.46958  -0.46379
 Alpha  occ. eigenvalues --   -0.46280  -0.45888  -0.44865  -0.44259  -0.43828
 Alpha  occ. eigenvalues --   -0.43678  -0.43641  -0.43504  -0.43258  -0.43079
 Alpha  occ. eigenvalues --   -0.42008  -0.41407  -0.41222  -0.41013  -0.40911
 Alpha  occ. eigenvalues --   -0.40635  -0.37479  -0.37132  -0.37056  -0.36997
 Alpha  occ. eigenvalues --   -0.35635  -0.35615  -0.35375  -0.30245  -0.27754
 Alpha  occ. eigenvalues --   -0.27268  -0.27172  -0.26992  -0.26990  -0.26434
 Alpha  occ. eigenvalues --   -0.26431  -0.25399  -0.21749
 Alpha virt. eigenvalues --   -0.09172  -0.07688  -0.03690  -0.03502  -0.03479
 Alpha virt. eigenvalues --   -0.02658  -0.02397  -0.01327  -0.01105  -0.00904
 Alpha virt. eigenvalues --   -0.00150   0.00357   0.00445   0.01083   0.01213

 Mulliken charges:
               1
     1  F   -0.192106
     2  C   -0.183068
     3  C   -0.375943
     4  F   -0.151701
     5  C    0.512096
     6  C   -0.183283
     7  F   -0.192104
     8  C   -0.376060
     9  F   -0.151696
    10  C    0.512147
    11  H    0.182296
    12  C    0.242636
    13  C   -0.150116
    14  H    0.174675
    15  C   -0.421185
    16  H    0.159077
    17  C   -0.243463
    18  H    0.179808
    19  C   -1.488476
    20  H    0.096273
    21  C    1.241596
    22  C   -0.052712
    23  O   -0.280072
    24  C   -0.181319
    25  C    0.063770
    26  H    0.142971
    27  N    0.005599
    28  H    0.208539
    29  H    0.510982
    30  H    0.182298
    31  C    0.242639
    32  C   -0.150039
    33  H    0.174675
    34  C   -0.421271
    35  H    0.159075
    36  C   -0.243347
    37  H    0.179810
    38  C   -1.488685
    39  H    0.096261
    40  C    1.241556
    41  C   -0.052641
    42  O   -0.280071
    43  C   -0.181205
    44  C    0.063694
    45  H    0.142959
    46  N    0.005695
    47  H    0.208553
    48  H    0.510880
 Sum of Mulliken charges =   0.00000

 Dipole moment (field-independent basis, Debye):
    X=             -0.0011    Y=             -0.0004    Z=             -0.0001  Tot=              0.0012
 Quadrupole moment (field-independent basis, Debye-Ang):
   XX=           -136.1521   YY=           -182.0038   ZZ=           -189.2903
   XY=            -18.8869   XZ=              0.5318   YZ=              2.8511

  Exact polarizability:     798.565      20.080     291.880     -26.720      -1.568     156.686
 Approx polarizability:     907.687       6.957     532.210     -27.068      -2.731     248.986

                      1                      2                      3
                      A                      A                      A
 Frequencies --      6.3291                 9.5917                10.6792
 Red. masses --      4.5146                 6.3530                 5.7384
 Frc consts  --      0.0001                 0.0003                 0.0004
 IR Inten    --      1.9359                 1.4245                 0.0001

                      4                      5                      6
                      A                      A                      A
 Frequencies --     23.5895                24.9838                36.7576
 Red. masses --      6.5151                 5.9204                 4.6780
 Frc consts  --      0.0021                 0.0022                 0.0037
 IR Inten    --      0.0000                 0.7442                 0.0000

                      7                      8                      9
                      A                      A                      A
 Frequencies --     39.6444                53.6245                55.8831
 Red. masses --      4.3928                 8.4865                 7.1815
 Frc consts  --      0.0041                 0.0144                 0.0132
 IR Inten    --      5.3746                 1.6919                 0.0000

                     10                     11                     12
                      A                      A                      A
 Frequencies --     86.5806               121.7347               129.8798
 Red. masses --      8.4371                 6.7919                 8.8854
 Frc consts  --      0.0373                 0.0593                 0.0883
 IR Inten    --      0.0000                 0.0000                 0.2178

                     13                     14                     15
                      A                      A                      A
 Frequencies --    131.6987               147.6346               159.4691
 Red. masses --      9.7995                 7.5622                 7.9007
 Frc consts  --      0.1001                 0.0971                 0.1184
 IR Inten    --      0.1945                 1.3385                 0.0000

                     16                     17                     18
                      A                      A                      A
 Frequencies --    169.2428               175.2419               194.7791
 Red. masses --      9.1001                 6.9844                 6.7349
 Frc consts  --      0.1536                 0.1264                 0.1505
 IR Inten    --      7.5923                 0.0000                 1.9121

                     19                     20                     21
                      A                      A                      A
 Frequencies --    218.2473               245.7152               298.8230
 Red. masses --      7.8837                 8.7298                 6.6555
 Frc consts  --      0.2212                 0.3105                 0.3502
 IR Inten    --      0.0000                 1.2396                 0.0000

                     22                     23                     24
                      A                      A                      A
 Frequencies --    310.5964               311.2444               323.3675
 Red. masses --      8.0314                17.3235                13.0407
 Frc consts  --      0.4565                 0.9888                 0.8034
 IR Inten    --     21.9121                 0.0005                 9.8695

                     25                     26                     27
                      A                      A                      A
 Frequencies --    352.5524               363.4661               370.2970
 Red. masses --     11.3487                 3.9496                 3.1957
 Frc consts  --      0.8311                 0.3074                 0.2582
 IR Inten    --      7.9059                 0.0000                 4.0934

                     28                     29                     30
                      A                      A                      A
 Frequencies --    376.0455               378.2756               392.2372
 Red. masses --      7.6260                 6.7653                 9.6732
 Frc consts  --      0.6354                 0.5704                 0.8768
 IR Inten    --      0.0000                 0.0000                 0.0000

                     31                     32                     33
                      A                      A                      A
 Frequencies --    409.9184               410.2925               413.8860
 Red. masses --      3.0335                 2.9119                 5.6348
 Frc consts  --      0.3003                 0.2888                 0.5687
 IR Inten    --      3.6791                 0.0000                10.8107

                     34                     35                     36
                      A                      A                      A
 Frequencies --    417.9436               446.5439               449.7857
 Red. masses --      7.5605                 5.1738                 9.0012
 Frc consts  --      0.7781                 0.6078                 1.0729
 IR Inten    --      0.0001                 2.4185                 0.0000

                     37                     38                     39
                      A                      A                      A
 Frequencies --    459.2275               476.2403               492.2693
 Red. masses --      4.9636                 5.0107                 8.2896
 Frc consts  --      0.6167                 0.6696                 1.1836
 IR Inten    --      0.0000                 5.1434                 0.0000

                     40                     41                     42
                      A                      A                      A
 Frequencies --    525.9357               532.3757               628.3332
 Red. masses --      7.3941                 6.8749                 7.0641
 Frc consts  --      1.2050                 1.1480                 1.6432
 IR Inten    --      0.0000                 4.4781                 0.0000

                     43                     44                     45
                      A                      A                      A
 Frequencies --    631.9238               632.8701               642.8445
 Red. masses --      6.4744                 6.5451                10.1660
 Frc consts  --      1.5233                 1.5445                 2.4752
 IR Inten    --      1.4865                 0.0000                 2.4716

                     46                     47                     48
                      A                      A                      A
 Frequencies --    643.5114               658.8051               663.4304
 Red. masses --      9.3454                11.7740                11.9068
 Frc consts  --      2.2801                 3.0108                 3.0877
 IR Inten    --      6.4866                 0.0000                 1.4535

                     49                     50                     51
                      A                      A                      A
 Frequencies --    698.4691               698.5023               714.2151
 Red. masses --      2.2823                 2.2792                 1.8556
 Frc consts  --      0.6560                 0.6552                 0.5577
 IR Inten    --     42.0476                 0.0003                 0.0002

                     52                     53                     54
                      A                      A                      A
 Frequencies --    714.8468               722.0792               724.6209
 Red. masses --      1.7875                 5.4173                 6.2418
 Frc consts  --      0.5382                 1.6642                 1.9310
 IR Inten    --     45.2811                 0.0000                67.4933

                     55                     56                     57
                      A                      A                      A
 Frequencies --    756.5429               756.7147               819.0602
 Red. masses --      1.2486                 1.2477                 8.3863
 Frc consts  --      0.4211                 0.4209                 3.3148
 IR Inten    --      0.0030               150.7741                 0.0000

                     58                     59                     60
                      A                      A                      A
 Frequencies --    821.1103               821.2314               854.8821
 Red. masses --      2.6524                 2.6927                 1.3171
 Frc consts  --      1.0536                 1.0700                 0.5671
 IR Inten    --     11.7648                 0.0018                 0.0108

                     61                     62                     63
                      A                      A                      A
 Frequencies --    855.2146               857.3799               857.4873
 Red. masses --      1.3179                 1.2636                 1.2710
 Frc consts  --      0.5679                 0.5473                 0.5506
 IR Inten    --     99.1254                 0.0014                22.3321

                     64                     65                     66
                      A                      A                      A
 Frequencies --    873.8021               900.3165               946.7825
 Red. masses --      6.8955                 6.1466                 1.4620
 Frc consts  --      3.1020                 2.9355                 0.7722
 IR Inten    --     61.7464                 0.0000                 5.1032

                     67                     68                     69
                      A                      A                      A
 Frequencies --    946.8987               954.5167               991.9117
 Red. masses --      1.4614                 6.8042                 1.3399
 Frc consts  --      0.7720                 3.6525                 0.7767
 IR Inten    --      0.0000               127.5831                 0.0001

                     70                     71                     72
                      A                      A                      A
 Frequencies --    991.9626               994.2698               994.4872
 Red. masses --      1.3445                 1.2583                 1.2542
 Frc consts  --      0.7795                 0.7329                 0.7308
 IR Inten    --      1.8177                 0.0023                27.5670

                     73                     74                     75
                      A                      A                      A
 Frequencies --   1009.3252              1009.3357              1015.5772
 Red. masses --      1.3135                 1.3139                 6.1104
 Frc consts  --      0.7884                 0.7886                 3.7132
 IR Inten    --      0.1786                 0.0018                 0.0001

                     76                     77                     78
                      A                      A                      A
 Frequencies --   1015.5965              1038.2652              1038.4390
 Red. masses --      6.1181                 4.3437                 4.1973
 Frc consts  --      3.7180                 2.7589                 2.6667
 IR Inten    --      3.4904                 0.3733               321.2624

                     79                     80                     81
                      A                      A                      A
 Frequencies --   1060.1024              1063.8864              1065.5903
 Red. masses --      3.8553                 2.1838                 3.0142
 Frc consts  --      2.5527                 1.4563                 2.0165
 IR Inten    --    279.5727                 0.0005                33.4899

                     82                     83                     84
                      A                      A                      A
 Frequencies --   1102.4643              1112.3703              1114.4176
 Red. masses --      3.4017                 1.6370                 2.1033
 Frc consts  --      2.4360                 1.1935                 1.5390
 IR Inten    --      0.0000                12.3248                 0.0000

                     85                     86                     87
                      A                      A                      A
 Frequencies --   1150.7597              1190.5781              1192.4241
 Red. masses --      3.7888                 1.3423                 1.1256
 Frc consts  --      2.9561                 1.1210                 0.9430
 IR Inten    --      0.0000                94.7782                 0.0000

                     88                     89                     90
                      A                      A                      A
 Frequencies --   1193.8656              1208.4596              1217.3709
 Red. masses --      1.3119                 1.3452                 1.2334
 Frc consts  --      1.1017                 1.1574                 1.0769
 IR Inten    --    221.6381                 0.0000                42.6827

                     91                     92                     93
                      A                      A                      A
 Frequencies --   1225.9378              1254.0360              1258.6877
 Red. masses --      1.6314                 3.9665                 4.0002
 Frc consts  --      1.4446                 3.6751                 3.7340
 IR Inten    --      0.0000              1526.6380                 0.0000

                     94                     95                     96
                      A                      A                      A
 Frequencies --   1277.2919              1318.2567              1330.1980
 Red. masses --      4.0378                 1.8784                 2.1620
 Frc consts  --      3.8813                 1.9232                 2.2539
 IR Inten    --    168.0802              1349.9306                 0.0012

                     97                     98                     99
                      A                      A                      A
 Frequencies --   1335.1391              1336.4892              1336.9623
 Red. masses --      3.8064                 5.2775                 2.4321
 Frc consts  --      3.9978                 5.5541                 2.5614
 IR Inten    --      4.6449                88.3893                 0.0131

                    100                    101                    102
                      A                      A                      A
 Frequencies --   1355.6653              1355.6705              1403.0106
 Red. masses --      1.6566                 1.6709                 1.7694
 Frc consts  --      1.7938                 1.8093                 2.0521
 IR Inten    --      0.0002                 6.9623                 0.0001

                    103                    104                    105
                      A                      A                      A
 Frequencies --   1417.6827              1458.4525              1470.1640
 Red. masses --      2.1168                 2.8420                 2.1826
 Frc consts  --      2.5066                 3.5618                 2.7794
 IR Inten    --    113.7547                 0.0000               112.8777

                    106                    107                    108
                      A                      A                      A
 Frequencies --   1474.8630              1489.0467              1515.3682
 Red. masses --      2.4185                 2.6287                 2.7671
 Frc consts  --      3.0995                 3.4341                 3.7437
 IR Inten    --      0.0000              1062.2139                 0.0000

                    109                    110                    111
                      A                      A                      A
 Frequencies --   1522.8650              1527.5092              1532.3359
 Red. masses --      2.3817                 8.1553                 2.9198
 Frc consts  --      3.2543                11.2113                 4.0394
 IR Inten    --    109.8510               172.5965                 0.0000

                    112                    113                    114
                      A                      A                      A
 Frequencies --   1554.7072              1596.4521              1607.2864
 Red. masses --      7.3750                 6.2965                 4.5367
 Frc consts  --     10.5029                 9.4549                 6.9053
 IR Inten    --    172.9793                 0.0000                74.3342

                    115                    116                    117
                      A                      A                      A
 Frequencies --   1618.0472              1635.8301              1637.9015
 Red. masses --      6.5162                 4.3037                 5.3828
 Frc consts  --     10.0514                 6.7852                 8.5081
 IR Inten    --      0.0000               155.5808                 0.0000

                    118                    119                    120
                      A                      A                      A
 Frequencies --   1641.3055              1651.7189              1671.5185
 Red. masses --      3.5774                 4.6414                 3.6745
 Frc consts  --      5.6781                 7.4605                 6.0488
 IR Inten    --    907.4519                 0.0007              2770.0580

                    121                    122                    123
                      A                      A                      A
 Frequencies --   1684.0872              1685.9060              3161.3718
 Red. masses --      8.3351                 3.4730                 1.0858
 Frc consts  --     13.9281                 5.8159                 6.3939
 IR Inten    --      0.0003                 0.0000                 1.2221

                    124                    125                    126
                      A                      A                      A
 Frequencies --   3161.3828              3172.0181              3172.0185
 Red. masses --      1.0858                 1.0891                 1.0891
 Frc consts  --      6.3939                 6.4566                 6.4566
 IR Inten    --      0.0159                 8.2346                10.0270

                    127                    128                    129
                      A                      A                      A
 Frequencies --   3182.9464              3182.9622              3192.7462
 Red. masses --      1.0931                 1.0931                 1.0948
 Frc consts  --      6.5248                 6.5248                 6.5752
 IR Inten    --     51.7589                 0.4036                18.5050

                    130                    131                    132
                      A                      A                      A
 Frequencies --   3192.7525              3199.8462              3199.8606
 Red. masses --      1.0948                 1.0939                 1.0940
 Frc consts  --      6.5753                 6.5994                 6.5995
 IR Inten    --      2.5331                18.9797                 0.5878

                    133                    134                    135
                      A                      A                      A
 Frequencies --   3220.1835              3220.1863              3239.3734
 Red. masses --      1.0874                 1.0874                 1.0944
 Frc consts  --      6.6435                 6.6436                 6.7661
 IR Inten    --      0.9386                 0.1851                 6.6407

                    136                    137                    138
                      A                      A                      A
 Frequencies --   3239.3849              3305.0535              3305.8075
 Red. masses --      1.0944                 1.0795                 1.0795
 Frc consts  --      6.7662                 6.9472                 6.9506
 IR Inten    --      0.0444               477.3245                 0.9242

 - Thermochemistry -
 -------------------
 Temperature   298.150 Kelvin.  Pressure   1.00000 Atm.
 Atom     1 has atomic number  9 and mass  18.99840

 Molecular mass:   440.11479 amu.
 Principal axes and moments of inertia in atomic units:
                           1         2         3
     Eigenvalues --  2891.12981********************
           X            0.99810  -0.04820   0.03850
           Y            0.04607   0.99746   0.05429
           Z           -0.04101  -0.05242   0.99778
 This molecule is an asymmetric top.
 Rotational symmetry number  1.
 Warning -- assumption of classical behavior for rotation
           may cause significant error
 Rotational temperatures (Kelvin)      0.02996     0.00164     0.00156
 Rotational constants (GHZ):           0.62423     0.03421     0.03246
 Zero-point vibrational energy     919023.7 (Joules/Mol)
                                  219.65194 (Kcal/Mol)
 Warning -- explicit consideration of  41 degrees of freedom as
           vibrations may cause significant error
 Vibrational temperatures:      9.11    13.80    15.36    33.94    35.95
          (Kelvin)             52.89    57.04    77.15    80.40   124.57
                              175.15   186.87   189.49   212.41   229.44
                              243.50   252.13   280.24   314.01   353.53
                              429.94   446.88   447.81   465.25   507.24
                              522.95   532.77   541.05   544.25   564.34
                              589.78   590.32   595.49   601.33   642.48
                              647.14   660.73   685.20   708.27   756.70
                              765.97   904.03   909.20   910.56   924.91
                              925.87   947.87   954.53  1004.94  1004.99
                             1027.60  1028.51  1038.91  1042.57  1088.50
                             1088.74  1178.45  1181.39  1181.57  1229.98
                             1230.46  1233.58  1233.73  1257.21  1295.35
                             1362.21  1362.38  1373.34  1427.14  1427.21
                             1430.53  1430.85  1452.19  1452.21  1461.19
                             1461.22  1493.83  1494.08  1525.25  1530.70
                             1533.15  1586.20  1600.45  1603.40  1655.69
                             1712.98  1715.63  1717.71  1738.70  1751.53
                             1763.85  1804.28  1810.97  1837.74  1896.68
                             1913.86  1920.97  1922.91  1923.59  1950.50
                             1950.51  2018.62  2039.73  2098.39  2115.24
                             2122.00  2142.41  2180.28  2191.06  2197.75
                             2204.69  2236.88  2296.94  2312.53  2328.01
                             2353.59  2356.57  2361.47  2376.46  2404.94
                             2423.03  2425.64  4548.51  4548.52  4563.83
                             4563.83  4579.55  4579.57  4593.65  4593.66
                             4603.86  4603.89  4633.13  4633.13  4660.74
                             4660.75  4755.23  4756.32

 Zero-point correction=                           0.350038 (Hartree/Particle)
 Thermal correction to Energy=                    0.377528
 Thermal correction to Enthalpy=                  0.378472
 Thermal correction to Gibbs Free Energy=         0.284925
 Sum of electronic and zero-point Energies=          -1583.607217
 Sum of electronic and thermal Energies=             -1583.579726
 Sum of electronic and thermal Enthalpies=           -1583.578782
 Sum of electronic and thermal Free Energies=        -1583.672330

                     E (Thermal)             CV                S
                      KCal/Mol        Cal/Mol-Kelvin    Cal/Mol-Kelvin
 Total                  236.903            104.029            196.888
 Electronic               0.000              0.000              0.000
 Translational            0.889              2.981             44.135
 Rotational               0.889              2.981             37.381
 Vibrational            235.125             98.067            115.372
 Vibration     1          0.593              1.987              8.920
 Vibration     2          0.593              1.987              8.094
 Vibration     3          0.593              1.987              7.880
 Vibration     4          0.593              1.985              6.306
 Vibration     5          0.593              1.985              6.192
 Vibration     6          0.594              1.982              5.427
 Vibration     7          0.594              1.981              5.277
 Vibration     8          0.596              1.976              4.679
 Vibration     9          0.596              1.975              4.598
 Vibration    10          0.601              1.959              3.736
 Vibration    11          0.609              1.931              3.073
 Vibration    12          0.612              1.923              2.948
 Vibration    13          0.612              1.922              2.921
 Vibration    14          0.617              1.905              2.702
 Vibration    15          0.621              1.892              2.556
 Vibration    16          0.625              1.880              2.444
 Vibration    17          0.627              1.873              2.379
 Vibration    18          0.635              1.847              2.182
 Vibration    19          0.646              1.813              1.974
 Vibration    20          0.660              1.770              1.761
 Vibration    21          0.692              1.676              1.423
 Vibration    22          0.699              1.654              1.359
 Vibration    23          0.700              1.652              1.356
 Vibration    24          0.708              1.629              1.293
 Vibration    25          0.729              1.570              1.155
 Vibration    26          0.737              1.547              1.107
 Vibration    27          0.742              1.533              1.079
 Vibration    28          0.747              1.521              1.055
 Vibration    29          0.749              1.516              1.046
 Vibration    30          0.760              1.487              0.992
 Vibration    31          0.774              1.449              0.927
 Vibration    32          0.774              1.448              0.926
 Vibration    33          0.777              1.440              0.913
 Vibration    34          0.781              1.431              0.899
 Vibration    35          0.806              1.369              0.806
 Vibration    36          0.809              1.361              0.796
 Vibration    37          0.817              1.340              0.768
 Vibration    38          0.833              1.303              0.720
 Vibration    39          0.848              1.267              0.678
 Vibration    40          0.881              1.193              0.596
 Vibration    41          0.887              1.178              0.582

 Normal termination of Gaussian 16 at Sat Oct 17 09:51:38 2020.
