 Gaussian 16, Revision C.01,
 Gaussian 16:  ES64L-G16RevC.01  3-Jul-2019

 --------------------------------------------------------------------
 #P B3LYP/6-311++G(d,p) EmpiricalDispersion=GD3 freq(noraman) SCF=YQC
 --------------------------------------------------------------------

 ------------------------------------------
 Restart from BiPhenyl_Nitrile_Triazine.log
 ------------------------------------------
 Symbolic Z-matrix:
 Charge =  0 Multiplicity = 1

                         Standard orientation:
 ---------------------------------------------------------------------
 Center     Atomic      Atomic             Coordinates (Angstroms)
 Number     Number       Type             X           Y           Z
 ---------------------------------------------------------------------
      1          6           0       -0.000000    3.562385   -0.000003
      2          6           0        0.405382    2.849187    1.137240
      3          6           0        0.403268    1.461813    1.134942
      4          6           0       -0.000000    0.740099   -0.000003
      5          6           0       -0.403268    1.461813   -1.134949
      6          6           0       -0.405382    2.849187   -1.137246
      7          6           0       -0.000000   -0.740099   -0.000003
      8          6           0        0.403268   -1.461813   -1.134949
      9          6           0        0.405382   -2.849187   -1.137246
     10          6           0       -0.000000   -3.562385   -0.000003
     11          6           0       -0.405382   -2.849187    1.137240
     12          6           0       -0.403268   -1.461813    1.134942
     13          1           0        0.728064   -3.395526   -2.013811
     14          1           0       -0.728064    3.395526   -2.013811
     15          1           0       -0.728064   -3.395526    2.013805
     16          1           0        0.728064    3.395526    2.013805
     17          1           0        0.743692   -0.928442   -2.014753
     18          1           0       -0.743692    0.928442   -2.014753
     19          1           0        0.743692    0.928442    2.014746
     20          1           0       -0.743692   -0.928442    2.014746
     21          6           0       -0.000001    5.038864   -0.000005
     22          7           0       -0.396839    5.677277   -1.116308
     23          6           0       -0.374734    7.004393   -1.053204
     24          7           0        0.396842    5.677274    1.116313
     25          6           0        0.374739    7.004379    1.053218
     26          7           0        0.000002    7.735908    0.000004
     27          1           0        0.690794    7.544624    1.941430
     28          1           0       -0.690790    7.544632   -1.941419
     29          6           0        0.000001   -5.038864   -0.000005
     30          7           0        0.396839   -5.677277   -1.116308
     31          6           0        0.374734   -7.004393   -1.053204
     32          7           0       -0.396842   -5.677274    1.116313
     33          6           0       -0.374739   -7.004379    1.053218
     34          7           0       -0.000002   -7.735908    0.000004
     35          1           0       -0.690794   -7.544624    1.941430
     36          1           0        0.690790   -7.544632   -1.941419
 ---------------------------------------------------------------------

 SCF Done:  E(RB3LYP) =  -1021.95148823     a.u. after    6 cycles
 SCF Done:  E(RB3LYP) =  -1021.95151417     A.U. after   10 cycles

 The electronic state is 1-A.
 Alpha  occ. eigenvalues --  -14.33908 -14.33908 -14.33907 -14.33907 -14.33765
 Alpha  occ. eigenvalues --  -14.33765 -10.28025 -10.28025 -10.26901 -10.26901
 Alpha  occ. eigenvalues --  -10.26901 -10.26901 -10.20971 -10.20940 -10.20347
 Alpha  occ. eigenvalues --  -10.20347 -10.19438 -10.19438 -10.19435 -10.19435
 Alpha  occ. eigenvalues --  -10.19357 -10.19357 -10.19357 -10.19357  -1.04283
 Alpha  occ. eigenvalues --   -1.04283  -0.92552  -0.92518  -0.91917  -0.91917
 Alpha  occ. eigenvalues --   -0.89157  -0.87026  -0.81042  -0.77315  -0.76757
 Alpha  occ. eigenvalues --   -0.76594  -0.71247  -0.70227  -0.70144  -0.68405
 Alpha  occ. eigenvalues --   -0.64053  -0.63508  -0.61669  -0.60132  -0.56714
 Alpha  occ. eigenvalues --   -0.56564  -0.56246  -0.56072  -0.52994  -0.48639
 Alpha  occ. eigenvalues --   -0.48612  -0.48296  -0.47139  -0.47120  -0.46330
 Alpha  occ. eigenvalues --   -0.46095  -0.44803  -0.44318  -0.44122  -0.44030
 Alpha  occ. eigenvalues --   -0.43535  -0.40314  -0.40021  -0.39151  -0.38807
 Alpha  occ. eigenvalues --   -0.38746  -0.37210  -0.36698  -0.35963  -0.35277
 Alpha  occ. eigenvalues --   -0.34552  -0.34552  -0.34187  -0.28838  -0.28834
 Alpha  occ. eigenvalues --   -0.28800  -0.28225  -0.28173  -0.27653  -0.27615
 Alpha  occ. eigenvalues --   -0.24770
 Alpha virt. eigenvalues --   -0.09996  -0.07763  -0.06775  -0.06759  -0.03056
 Alpha virt. eigenvalues --   -0.02708  -0.02000  -0.01088  -0.00334   0.00150
 Alpha virt. eigenvalues --    0.00399   0.01093   0.01266   0.01822   0.02060

 Mulliken charges:
               1
     1  C    0.746374
     2  C   -0.621726
     3  C   -0.664744
     4  C    0.922275
     5  C   -0.664741
     6  C   -0.621722
     7  C    0.922275
     8  C   -0.664741
     9  C   -0.621722
    10  C    0.746374
    11  C   -0.621726
    12  C   -0.664744
    13  H    0.220685
    14  H    0.220685
    15  H    0.220685
    16  H    0.220685
    17  H    0.159016
    18  H    0.159016
    19  H    0.159016
    20  H    0.159016
    21  C   -0.273174
    22  N   -0.001201
    23  C    0.073489
    24  N   -0.001200
    25  C    0.073495
    26  N   -0.140860
    27  H    0.207168
    28  H    0.207165
    29  C   -0.273174
    30  N   -0.001201
    31  C    0.073489
    32  N   -0.001200
    33  C    0.073495
    34  N   -0.140860
    35  H    0.207168
    36  H    0.207165
 Sum of Mulliken charges =  -0.00000

 Dipole moment (field-independent basis, Debye):
    X=             -0.0000    Y=             -0.0000    Z=              0.0000  Tot=              0.0000
 Quadrupole moment (field-independent basis, Debye-Ang):
   XX=           -139.8093   YY=           -155.6263   ZZ=           -128.9409
   XY=              0.0000   XZ=             -0.0000   YZ=              0.0000

  Exact polarizability:     133.168      -0.000     533.037      -0.000       0.000     218.974
 Approx polarizability:     224.415      -0.000     665.425       0.000       0.000     409.899

                      1                      2                      3
                      B                      A                      A
 Frequencies --     21.8570                31.4448                37.6551
 Red. masses --      7.6576                 5.4297                 7.2438
 Frc consts  --      0.0022                 0.0032                 0.0061
 IR Inten    --      0.0259                 0.0000                 0.0307

                      4                      5                      6
                      B                      A                      A
 Frequencies --     49.2638                72.7058                82.1960
 Red. masses --      4.4438                 7.9130                 3.7931
 Frc consts  --      0.0064                 0.0246                 0.0151
 IR Inten    --      0.0000                 0.0069                 0.0000

                      7                      8                      9
                      B                      B                      A
 Frequencies --    103.0485               135.2054               155.5495
 Red. masses --      8.7671                 6.9464                 8.1779
 Frc consts  --      0.0549                 0.0748                 0.1166
 IR Inten    --      0.0260                 0.1102                 0.2700

                     10                     11                     12
                      A                      A                      B
 Frequencies --    165.2539               208.5964               235.5120
 Red. masses --      9.4805                 6.0621                 7.2874
 Frc consts  --      0.1525                 0.1554                 0.2381
 IR Inten    --      0.0000                 1.0183                 0.0013

                     13                     14                     15
                      B                      A                      A
 Frequencies --    335.3371               342.7497               354.2043
 Red. masses --      8.4864                 6.0240                 3.4323
 Frc consts  --      0.5623                 0.4170                 0.2537
 IR Inten    --      1.6843                 0.0002                 0.0000

                     16                     17                     18
                      B                      B                      B
 Frequencies --    354.2088               377.0811               414.5942
 Red. masses --      3.4321                 5.9219                 2.9468
 Frc consts  --      0.2537                 0.4961                 0.2984
 IR Inten    --      0.0045                 0.8926                 1.1361

                     19                     20                     21
                      A                      B                      A
 Frequencies --    421.2782               452.3770               461.3414
 Red. masses --      2.9734                 4.2715                 5.5606
 Frc consts  --      0.3109                 0.5150                 0.6973
 IR Inten    --      0.0000                15.7717                 3.1530

                     22                     23                     24
                      A                      B                      A
 Frequencies --    481.2938               515.0897               523.1716
 Red. masses --      7.0842                 3.8218                 3.3166
 Frc consts  --      0.9669                 0.5974                 0.5349
 IR Inten    --      0.0000                 8.2790                 2.9029

                     25                     26                     27
                      B                      A                      B
 Frequencies --    581.9383               596.5242               642.0841
 Red. masses --      2.6610                 2.3361                 6.9774
 Frc consts  --      0.5310                 0.4898                 1.6948
 IR Inten    --      0.6075                 1.0628                 0.1928

                     28                     29                     30
                      A                      B                      B
 Frequencies --    653.9400               661.3184               712.1661
 Red. masses --      6.9172                 8.7382                 9.2852
 Frc consts  --      1.7428                 2.2516                 2.7746
 IR Inten    --      0.4809                19.4062                 2.5755

                     31                     32                     33
                      A                      A                      B
 Frequencies --    712.3200               728.0754               738.6021
 Red. masses --      9.2727                 7.5317                 4.1015
 Frc consts  --      2.7721                 2.3523                 1.3183
 IR Inten    --     21.2315                 0.0000                 0.1750

                     34                     35                     36
                      A                      B                      A
 Frequencies --    758.2984               789.3850               817.2621
 Red. masses --      3.3390                 6.9845                 6.5646
 Frc consts  --      1.1312                 2.5643                 2.5833
 IR Inten    --      2.0002                57.5191                 0.0000

                     37                     38                     39
                      B                      A                      B
 Frequencies --    823.0583               842.5538               857.9363
 Red. masses --      2.1321                 4.1463                 1.2490
 Frc consts  --      0.8510                 1.7342                 0.5416
 IR Inten    --    128.4187                10.9240                 0.2476

                     40                     41                     42
                      A                      B                      A
 Frequencies --    860.4730               877.6604               897.9203
 Red. masses --      1.2443                 2.7440                 2.1790
 Frc consts  --      0.5428                 1.2453                 1.0351
 IR Inten    --      0.0000                 3.2495                 3.4461

                     43                     44                     45
                      B                      A                      B
 Frequencies --    974.5908               974.8408               995.1298
 Red. masses --      1.5696                 1.5739                 1.3333
 Frc consts  --      0.8784                 0.8812                 0.7779
 IR Inten    --      1.7402                 0.1740                 0.1506

                     46                     47                     48
                      A                      B                      A
 Frequencies --    997.5413              1003.6420              1005.1093
 Red. masses --      1.3469                 1.3588                 1.4001
 Frc consts  --      0.7897                 0.8064                 0.8334
 IR Inten    --      0.0288                 1.4974                 0.0000

                     49                     50                     51
                      B                      A                      B
 Frequencies --   1008.6330              1009.8245              1021.3949
 Red. masses --     12.6601                10.0794                 6.1794
 Frc consts  --      7.5885                 6.0559                 3.7983
 IR Inten    --     55.6578                 0.0000                34.8595

                     52                     53                     54
                      B                      A                      A
 Frequencies --   1033.8971              1033.8973              1036.1166
 Red. masses --      1.4788                 1.4788                 3.1544
 Frc consts  --      0.9313                 0.9313                 1.9952
 IR Inten    --      0.0016                 0.0000                 0.0000

                     55                     56                     57
                      B                      A                      B
 Frequencies --   1047.2639              1097.2036              1100.6332
 Red. masses --      3.1838                 3.8688                 2.9785
 Frc consts  --      2.0574                 2.7441                 2.1258
 IR Inten    --      0.4261                 0.0000                12.9833

                     58                     59                     60
                      A                      B                      B
 Frequencies --   1144.6080              1144.6842              1174.7971
 Red. masses --      1.7223                 1.5608                 4.7042
 Frc consts  --      1.3295                 1.2050                 3.8253
 IR Inten    --      3.5579                 0.2547                 0.7839

                     61                     62                     63
                      A                      B                      A
 Frequencies --   1174.8236              1179.6697              1179.8619
 Red. masses --      4.8924                 2.8885                 2.8981
 Frc consts  --      3.9785                 2.3684                 2.3770
 IR Inten    --      6.4970                 3.9719                 0.0000

                     64                     65                     66
                      B                      A                      A
 Frequencies --   1215.0844              1223.8843              1265.7636
 Red. masses --      1.1443                 1.1656                 3.8409
 Frc consts  --      0.9954                 1.0287                 3.6256
 IR Inten    --     42.2238                 0.0000                 0.1130

                     67                     68                     69
                      B                      A                      A
 Frequencies --   1268.2346              1308.1525              1310.3782
 Red. masses --      3.5474                 3.2642                 2.5060
 Frc consts  --      3.3617                 3.2912                 2.5353
 IR Inten    --      0.0034                 0.0000                 2.4563

                     70                     71                     72
                      B                      B                      A
 Frequencies --   1338.9010              1342.9174              1349.9435
 Red. masses --      1.5801                 3.8716                 1.7614
 Frc consts  --      1.6690                 4.1138                 1.8912
 IR Inten    --      0.2183                 1.8497                 5.4909

                     73                     74                     75
                      B                      A                      B
 Frequencies --   1357.8331              1361.9981              1418.4150
 Red. masses --      2.6786                 2.7412                 1.5452
 Frc consts  --      2.9097                 2.9960                 1.8317
 IR Inten    --    129.3213                 0.0000                 7.6037

                     76                     77                     78
                      A                      A                      B
 Frequencies --   1418.6770              1428.9424              1446.5456
 Red. masses --      1.5650                 2.8418                 2.3587
 Frc consts  --      1.8558                 3.4187                 2.9079
 IR Inten    --     60.4581                 2.7871              1260.2854

                     79                     80                     81
                      B                      A                      B
 Frequencies --   1449.0065              1452.7418              1531.6772
 Red. masses --      3.0632                 2.4721                 2.4462
 Frc consts  --      3.7894                 3.0739                 3.3812
 IR Inten    --      0.0010                 0.0000                57.3423

                     82                     83                     84
                      A                      A                      B
 Frequencies --   1546.9202              1554.6562              1554.8705
 Red. masses --      6.6994                 2.8386                 7.2959
 Frc consts  --      9.4454                 4.0423                10.3925
 IR Inten    --    184.8014                 0.0000                29.8668

                     85                     86                     87
                      B                      A                      A
 Frequencies --   1594.0860              1595.8172              1599.0417
 Red. masses --      5.2308                 6.7033                 5.4554
 Frc consts  --      7.8315                10.0579                 8.2185
 IR Inten    --   1493.5464                78.9777                 0.0000

                     88                     89                     90
                      B                      A                      B
 Frequencies --   1611.3747              1645.2138              1650.4554
 Red. masses --      7.3158                 5.5650                 5.7501
 Frc consts  --     11.1919                 8.8748                 9.2285
 IR Inten    --      4.0461                 0.0000                50.4479

                     91                     92                     93
                      B                      A                      B
 Frequencies --   3156.2087              3156.2138              3159.5239
 Red. masses --      1.0902                 1.0902                 1.0945
 Frc consts  --      6.3988                 6.3988                 6.4375
 IR Inten    --      5.5575                43.4643                62.2185

                     94                     95                     96
                      A                      B                      B
 Frequencies --   3159.6255              3173.7993              3174.1810
 Red. masses --      1.0946                 1.0896                 1.0897
 Frc consts  --      6.4382                 6.4665                 6.4687
 IR Inten    --      0.0000                 2.0821                12.0560

                     97                     98                     99
                      A                      A                      B
 Frequencies --   3179.5819              3179.6137              3205.5894
 Red. masses --      1.0893                 1.0885                 1.0923
 Frc consts  --      6.4885                 6.4840                 6.6132
 IR Inten    --      0.0000                 8.7942                 0.3174

                    100                    101                    102
                      A                      B                      A
 Frequencies --   3205.8486              3206.3880              3206.9370
 Red. masses --      1.0924                 1.0936                 1.0939
 Frc consts  --      6.6148                 6.6243                 6.6282
 IR Inten    --      2.0311                 2.3669                 0.0000

 - Thermochemistry -
 -------------------
 Temperature   298.150 Kelvin.  Pressure   1.00000 Atm.
 Atom     1 has atomic number  6 and mass  12.00000

 Molecular mass:   312.11234 amu.
 Principal axes and moments of inertia in atomic units:
                           1         2         3
     Eigenvalues --  1187.03957********************
           X            0.00000   0.00000   1.00000
           Y            1.00000   0.00000  -0.00000
           Z            0.00000   1.00000   0.00000
 This molecule is an asymmetric top.
 Rotational symmetry number  2.
 Warning -- assumption of classical behavior for rotation
           may cause significant error
 Rotational temperatures (Kelvin)      0.07297     0.00320     0.00310
 Rotational constants (GHZ):           1.52037     0.06674     0.06454
 Zero-point vibrational energy     713128.3 (Joules/Mol)
                                  170.44175 (Kcal/Mol)
 Warning -- explicit consideration of  26 degrees of freedom as
           vibrations may cause significant error
 Vibrational temperatures:     31.45    45.24    54.18    70.88   104.61
          (Kelvin)            118.26   148.26   194.53   223.80   237.76
                              300.12   338.85   482.48   493.14   509.62
                              509.63   542.54   596.51   606.13   650.87
                              663.77   692.47   741.10   752.73   837.28
                              858.27   923.82   940.87   951.49  1024.65
                             1024.87  1047.54  1062.68  1091.02  1135.75
                             1175.86  1184.20  1212.25  1234.38  1238.03
                             1262.76  1291.91  1402.22  1402.58  1431.77
                             1435.24  1444.02  1446.13  1451.20  1452.91
                             1469.56  1487.55  1487.55  1490.74  1506.78
                             1578.63  1583.57  1646.84  1646.95  1690.27
                             1690.31  1697.28  1697.56  1748.24  1760.90
                             1821.15  1824.71  1882.14  1885.34  1926.38
                             1932.16  1942.27  1953.62  1959.61  2040.78
                             2041.16  2055.93  2081.26  2084.80  2090.17
                             2203.74  2225.67  2236.80  2237.11  2293.53
                             2296.03  2300.66  2318.41  2367.10  2374.64
                             4541.08  4541.09  4545.85  4546.00  4566.39
                             4566.94  4574.71  4574.75  4612.13  4612.50
                             4613.28  4614.07

 Zero-point correction=                           0.271616 (Hartree/Particle)
 Thermal correction to Energy=                    0.289325
 Thermal correction to Enthalpy=                  0.290269
 Thermal correction to Gibbs Free Energy=         0.223566
 Sum of electronic and zero-point Energies=          -1021.679898
 Sum of electronic and thermal Energies=             -1021.662190
 Sum of electronic and thermal Enthalpies=           -1021.661245
 Sum of electronic and thermal Free Energies=        -1021.727948

                     E (Thermal)             CV                S
                      KCal/Mol        Cal/Mol-Kelvin    Cal/Mol-Kelvin
 Total                  181.554             69.004            140.388
 Electronic               0.000              0.000              0.000
 Translational            0.889              2.981             43.111
 Rotational               0.889              2.981             33.772
 Vibrational            179.776             63.043             63.505
 Vibration     1          0.593              1.985              6.458
 Vibration     2          0.594              1.983              5.736
 Vibration     3          0.594              1.982              5.379
 Vibration     4          0.595              1.978              4.847
 Vibration     5          0.599              1.967              4.079
 Vibration     6          0.600              1.961              3.838
 Vibration     7          0.605              1.947              3.396
 Vibration     8          0.613              1.918              2.871
 Vibration     9          0.620              1.896              2.603
 Vibration    10          0.624              1.885              2.489
 Vibration    11          0.642              1.828              2.056
 Vibration    12          0.655              1.786              1.837
 Vibration    13          0.716              1.605              1.234
 Vibration    14          0.722              1.590              1.199
 Vibration    15          0.730              1.567              1.147
 Vibration    16          0.730              1.567              1.147
 Vibration    17          0.748              1.519              1.051
 Vibration    18          0.778              1.439              0.911
 Vibration    19          0.784              1.424              0.888
 Vibration    20          0.811              1.356              0.789
 Vibration    21          0.819              1.336              0.762
 Vibration    22          0.838              1.292              0.707
 Vibration    23          0.870              1.217              0.621
 Vibration    24          0.878              1.199              0.603
 Vibration    25          0.939              1.070              0.482
 Vibration    26          0.954              1.039              0.456

 Normal termination of Gaussian 16 at Sun Aug  2 11:35:18 2020.
