 Gaussian 16, Revision C.01,
 Gaussian 16:  ES64L-G16RevC.01  3-Jul-2019

 ----------------------------------------------------------------------
 #P B3LYP/6-311++G(d,p) EmpiricalDispersion=GD3 freq(noraman) SCF=YQC N
 oSymm
 ----------------------------------------------------------------------

 -------------------------------------
 Restart from F_PrimaryAmine_Imide.log
 -------------------------------------
 Symbolic Z-matrix:
 Charge =  0 Multiplicity = 1

                          Input orientation:
 ---------------------------------------------------------------------
 Center     Atomic      Atomic             Coordinates (Angstroms)
 Number     Number       Type             X           Y           Z
 ---------------------------------------------------------------------
      1          9           0        1.281830   -1.824268   -1.559317
      2          6           0        0.657578   -0.936640   -0.780218
      3          6           0       -0.728516   -0.926322   -0.727732
      4          9           0       -1.422997   -1.804071   -1.456981
      5          6           0       -1.403778    0.010440    0.053166
      6          6           0       -0.657578    0.936639    0.780219
      7          9           0       -1.281830    1.824268    1.559317
      8          6           0        0.728516    0.926321    0.727733
      9          9           0        1.422997    1.804071    1.456981
     10          6           0        1.403778   -0.010441   -0.053165
     11          6           0       -5.014597    0.660407   -0.122612
     12          6           0       -6.201578    1.316878   -0.404036
     13          1           0       -6.199119    2.284832   -0.889948
     14          6           0       -7.390775    0.680141   -0.034910
     15          1           0       -8.340350    1.161748   -0.237295
     16          6           0       -7.376359   -0.570397    0.592998
     17          1           0       -8.315015   -1.038030    0.866568
     18          6           0       -6.172284   -1.224863    0.871888
     19          1           0       -6.147550   -2.193033    1.356744
     20          6           0       -5.000289   -0.585890    0.501466
     21          6           0       -3.588683   -1.025378    0.669871
     22          6           0       -3.613363    1.078935   -0.397369
     23          7           0       -2.809818    0.020877    0.106334
     24          8           0       -3.195477    2.072453   -0.931205
     25          8           0       -3.146516   -2.025230    1.171343
     26          6           0        5.014597   -0.660407    0.122612
     27          6           0        6.201579   -1.316878    0.404035
     28          1           0        6.199119   -2.284832    0.889947
     29          6           0        7.390775   -0.680141    0.034909
     30          1           0        8.340350   -1.161747    0.237293
     31          6           0        7.376359    0.570398   -0.592999
     32          1           0        8.315014    1.038031   -0.866569
     33          6           0        6.172284    1.224863   -0.871888
     34          1           0        6.147549    2.193034   -1.356743
     35          6           0        5.000289    0.585890   -0.501466
     36          6           0        3.588682    1.025377   -0.669870
     37          6           0        3.613363   -1.078935    0.397369
     38          7           0        2.809818   -0.020877   -0.106334
     39          8           0        3.195478   -2.072453    0.931205
     40          8           0        3.146515    2.025230   -1.171342
 ---------------------------------------------------------------------

 SCF Done:  E(RB3LYP) =  -1653.44413253     a.u. after    7 cycles
 SCF Done:  E(RB3LYP) =  -1653.44414710     A.U. after   10 cycles

 Alpha  occ. eigenvalues --  -24.72630 -24.72630 -24.72629 -24.72629 -19.14217
 Alpha  occ. eigenvalues --  -19.14217 -19.14216 -19.14216 -14.39511 -14.39511
 Alpha  occ. eigenvalues --  -10.31948 -10.31948 -10.31948 -10.31948 -10.30462
 Alpha  occ. eigenvalues --  -10.30461 -10.30406 -10.30404 -10.26925 -10.26924
 Alpha  occ. eigenvalues --  -10.22241 -10.22240 -10.22185 -10.22185 -10.21877
 Alpha  occ. eigenvalues --  -10.21877 -10.21876 -10.21876 -10.21717 -10.21717
 Alpha  occ. eigenvalues --  -10.21665 -10.21665  -1.27633  -1.27553  -1.26276
 Alpha  occ. eigenvalues --   -1.26217  -1.10152  -1.10139  -1.08342  -1.08342
 Alpha  occ. eigenvalues --   -0.99816  -0.99513  -0.92444  -0.90843  -0.89569
 Alpha  occ. eigenvalues --   -0.84136  -0.81518  -0.79755  -0.79591  -0.79591
 Alpha  occ. eigenvalues --   -0.77600  -0.72173  -0.69739  -0.69592  -0.67955
 Alpha  occ. eigenvalues --   -0.67759  -0.65562  -0.63939  -0.63445  -0.61880
 Alpha  occ. eigenvalues --   -0.61103  -0.60756  -0.58605  -0.58332  -0.56494
 Alpha  occ. eigenvalues --   -0.54554  -0.54521  -0.54492  -0.53869  -0.53658
 Alpha  occ. eigenvalues --   -0.52342  -0.51362  -0.50839  -0.50805  -0.48955
 Alpha  occ. eigenvalues --   -0.48921  -0.48535  -0.48323  -0.48227  -0.47992
 Alpha  occ. eigenvalues --   -0.47693  -0.47649  -0.46530  -0.46411  -0.46299
 Alpha  occ. eigenvalues --   -0.46270  -0.46236  -0.43848  -0.42795  -0.42383
 Alpha  occ. eigenvalues --   -0.41948  -0.41713  -0.40844  -0.40807  -0.40158
 Alpha  occ. eigenvalues --   -0.40124  -0.39530  -0.39523  -0.38178  -0.33270
 Alpha  occ. eigenvalues --   -0.31968  -0.31932  -0.31815  -0.30425  -0.29778
 Alpha  occ. eigenvalues --   -0.29778  -0.29522  -0.29475  -0.29450  -0.27662
 Alpha  occ. eigenvalues --   -0.27362
 Alpha virt. eigenvalues --   -0.10459  -0.10459  -0.07433  -0.06605  -0.05359
 Alpha virt. eigenvalues --   -0.03231  -0.02350  -0.01576  -0.01266   0.00209
 Alpha virt. eigenvalues --    0.00225   0.00550   0.00564   0.01024   0.01509

 Mulliken charges:
               1
     1  F   -0.146027
     2  C    0.215804
     3  C    0.215948
     4  F   -0.146005
     5  C   -0.689934
     6  C    0.215802
     7  F   -0.146027
     8  C    0.215945
     9  F   -0.146005
    10  C   -0.689932
    11  C    0.850903
    12  C   -0.511787
    13  H    0.204164
    14  C   -0.384312
    15  H    0.184927
    16  C   -0.384385
    17  H    0.184929
    18  C   -0.511671
    19  H    0.204158
    20  C    0.850614
    21  C   -0.146181
    22  C   -0.146719
    23  N    0.614274
    24  O   -0.229365
    25  O   -0.229332
    26  C    0.850901
    27  C   -0.511786
    28  H    0.204163
    29  C   -0.384313
    30  H    0.184927
    31  C   -0.384386
    32  H    0.184929
    33  C   -0.511670
    34  H    0.204158
    35  C    0.850615
    36  C   -0.146183
    37  C   -0.146717
    38  N    0.614274
    39  O   -0.229364
    40  O   -0.229333
 Sum of Mulliken charges =   0.00000

 Dipole moment (field-independent basis, Debye):
    X=             -0.0000    Y=             -0.0000    Z=              0.0000  Tot=              0.0000
 Quadrupole moment (field-independent basis, Debye-Ang):
   XX=            -84.1663   YY=           -194.5516   ZZ=           -184.3897
   XY=             -0.7505   XZ=             -3.7761   YZ=              1.8587

  Exact polarizability:     449.213      -2.688     252.170     -10.687     -32.402     173.191
 Approx polarizability:     558.399      -3.301     488.557     -10.146     -73.783     304.655

                      1                      2                      3
                      A                      A                      A
 Frequencies --     19.0289                22.0044                24.2509
 Red. masses --      7.2339                 8.0610                 7.2646
 Frc consts  --      0.0015                 0.0023                 0.0025
 IR Inten    --      2.0912                 0.2801                 2.1022

                      4                      5                      6
                      A                      A                      A
 Frequencies --     36.0250                38.8596                62.3689
 Red. masses --     10.8931                 8.8218                10.3203
 Frc consts  --      0.0083                 0.0078                 0.0237
 IR Inten    --      0.0000                 0.0000                 0.0000

                      7                      8                      9
                      A                      A                      A
 Frequencies --    111.2777               119.4031               134.4019
 Red. masses --     11.4993                13.6698                 7.5803
 Frc consts  --      0.0839                 0.1148                 0.0807
 IR Inten    --      6.2000                 0.0000                 0.0402

                     10                     11                     12
                      A                      A                      A
 Frequencies --    137.1469               138.3586               141.8042
 Red. masses --     13.3399                 5.1495                 8.4653
 Frc consts  --      0.1478                 0.0581                 0.1003
 IR Inten    --      1.3406                 0.0000                 0.2212

                     13                     14                     15
                      A                      A                      A
 Frequencies --    149.3956               173.1130               177.3267
 Red. masses --      9.7987                 9.1449                 7.3467
 Frc consts  --      0.1289                 0.1615                 0.1361
 IR Inten    --      0.0000                 0.0000                 1.5445

                     16                     17                     18
                      A                      A                      A
 Frequencies --    182.3903               232.8601               244.6557
 Red. masses --     10.2043                14.6698                 6.9060
 Frc consts  --      0.2000                 0.4687                 0.2435
 IR Inten    --      0.0000                 0.1934                 0.4705

                     19                     20                     21
                      A                      A                      A
 Frequencies --    249.0836               273.7929               295.7815
 Red. masses --      7.1346                13.1564                18.6753
 Frc consts  --      0.2608                 0.5811                 0.9626
 IR Inten    --      0.0000                 3.4098                 0.0000

                     22                     23                     24
                      A                      A                      A
 Frequencies --    304.9620               321.3056               342.3125
 Red. masses --     18.0628                11.5058                10.3344
 Frc consts  --      0.9898                 0.6998                 0.7135
 IR Inten    --      0.9799                 0.0000                 1.5734

                     25                     26                     27
                      A                      A                      A
 Frequencies --    351.8036               356.2391               399.8043
 Red. masses --     11.6418                10.5261                12.6982
 Frc consts  --      0.8489                 0.7870                 1.1959
 IR Inten    --     31.5659                 0.0000                 0.0000

                     28                     29                     30
                      A                      A                      A
 Frequencies --    415.2164               417.5842               417.9494
 Red. masses --      3.2850                12.2778                 3.2122
 Frc consts  --      0.3337                 1.2614                 0.3306
 IR Inten    --      0.0000                10.9777                 3.3037

                     31                     32                     33
                      A                      A                      A
 Frequencies --    423.7638               456.3887               463.1196
 Red. masses --     11.6886                13.6563                 4.8272
 Frc consts  --      1.2367                 1.6759                 0.6100
 IR Inten    --      0.0000                 0.0000                 0.0423

                     34                     35                     36
                      A                      A                      A
 Frequencies --    463.3342               504.9148               536.3758
 Red. masses --      4.8229                15.2826                 7.4610
 Frc consts  --      0.6100                 2.2955                 1.2647
 IR Inten    --      0.0000                 0.0000                 0.0000

                     37                     38                     39
                      A                      A                      A
 Frequencies --    536.4246               576.6926               580.0992
 Red. masses --      7.4581                10.6191                10.9624
 Frc consts  --      1.2644                 2.0808                 2.1735
 IR Inten    --     19.8602                 0.0000                 0.0110

                     40                     41                     42
                      A                      A                      A
 Frequencies --    646.5810               663.1059               664.9889
 Red. masses --     11.1389                11.7515                11.1345
 Frc consts  --      2.7437                 3.0445                 2.9010
 IR Inten    --      4.7445               150.7630                 0.0000

                     43                     44                     45
                      A                      A                      A
 Frequencies --    677.3034               678.3446               684.7281
 Red. masses --      5.2576                 4.9514                10.7837
 Frc consts  --      1.4210                 1.3424                 2.9789
 IR Inten    --      4.3846                 0.0000                 6.6244

                     46                     47                     48
                      A                      A                      A
 Frequencies --    705.9363               722.9142               725.3636
 Red. masses --      8.5632                 2.6795                 3.0962
 Frc consts  --      2.5143                 0.8250                 0.9598
 IR Inten    --      0.0000                 0.0000               100.0471

                     49                     50                     51
                      A                      A                      A
 Frequencies --    733.3327               743.9777               758.3803
 Red. masses --      4.4678                 7.5503                 9.2077
 Frc consts  --      1.4156                 2.4623                 3.1201
 IR Inten    --     54.3289                32.8947                 0.0000

                     52                     53                     54
                      A                      A                      A
 Frequencies --    764.5596               782.8471               800.8551
 Red. masses --      7.1405                 4.1150                 5.7770
 Frc consts  --      2.4593                 1.4858                 2.1830
 IR Inten    --      0.0000                 0.0000                 4.3899

                     55                     56                     57
                      A                      A                      A
 Frequencies --    802.2910               802.7804               807.1955
 Red. masses --      5.7100                 1.9455                 2.5647
 Frc consts  --      2.1655                 0.7387                 0.9845
 IR Inten    --      0.0000                30.1092                 0.0000

                     58                     59                     60
                      A                      A                      A
 Frequencies --    890.8262               892.8064               909.1362
 Red. masses --      8.1986                 8.1993                 1.3788
 Frc consts  --      3.8333                 3.8507                 0.6715
 IR Inten    --     82.4596                 0.0000                 0.2113

                     61                     62                     63
                      A                      A                      A
 Frequencies --    909.3067               962.5757               985.6142
 Red. masses --      1.3825                10.3171                 1.3998
 Frc consts  --      0.6735                 5.6322                 0.8012
 IR Inten    --      0.0000                 4.7944                 0.0000

                     64                     65                     66
                      A                      A                      A
 Frequencies --    985.6181               991.0621              1015.0148
 Red. masses --      1.3998                13.8378                 1.3296
 Frc consts  --      0.8012                 8.0079                 0.8071
 IR Inten    --      1.9100               178.2141                 0.0120

                     67                     68                     69
                      A                      A                      A
 Frequencies --   1015.0328              1026.8506              1034.0127
 Red. masses --      1.3299                 2.8131                 2.0862
 Frc consts  --      0.8073                 1.7476                 1.3142
 IR Inten    --      0.0000                 0.0000                 2.9372

                     70                     71                     72
                      A                      A                      A
 Frequencies --   1069.1409              1087.5075              1092.4713
 Red. masses --      3.8408                 4.3893                 3.4623
 Frc consts  --      2.5867                 3.0585                 2.4347
 IR Inten    --      0.0000                 0.0000               131.4474

                     73                     74                     75
                      A                      A                      A
 Frequencies --   1114.6039              1120.3482              1153.6752
 Red. masses --      3.9373                 5.1839                13.3977
 Frc consts  --      2.8820                 3.8337                10.5063
 IR Inten    --      0.0000               123.0253                 0.0000

                     76                     77                     78
                      A                      A                      A
 Frequencies --   1181.9387              1190.1714              1192.9247
 Red. masses --      1.6438                 1.1681                 2.1536
 Frc consts  --      1.3530                 0.9749                 1.8057
 IR Inten    --      0.0022                 0.0000                 0.0000

                     79                     80                     81
                      A                      A                      A
 Frequencies --   1193.0044              1200.7063              1224.0224
 Red. masses --      2.1520                 2.0536                 4.5975
 Frc consts  --      1.8046                 1.7444                 4.0584
 IR Inten    --      2.2980                13.5734                 0.0000

                     82                     83                     84
                      A                      A                      A
 Frequencies --   1284.2553              1307.1847              1308.6840
 Red. masses --      9.2064                 9.5799                 1.5542
 Frc consts  --      8.9463                 9.6446                 1.5683
 IR Inten    --    809.0028                10.8759                 0.0000

                     85                     86                     87
                      A                      A                      A
 Frequencies --   1308.7431              1344.3543              1373.9054
 Red. masses --      1.6071                11.7613                12.4129
 Frc consts  --      1.6218                12.5237                13.8051
 IR Inten    --      0.5266                 0.0000               492.6043

                     88                     89                     90
                      A                      A                      A
 Frequencies --   1386.8752              1387.7829              1492.6845
 Red. masses --      5.7031                 5.6700                 8.8403
 Frc consts  --      6.4630                 6.4339                11.6052
 IR Inten    --    136.1534                 0.0000                 0.0000

                     91                     92                     93
                      A                      A                      A
 Frequencies --   1494.4058              1494.6795              1496.3243
 Red. masses --      2.5562                 2.8085                 2.4134
 Frc consts  --      3.3634                 3.6967                 3.1837
 IR Inten    --      0.7351                 0.0000                15.5475

                     94                     95                     96
                      A                      A                      A
 Frequencies --   1496.3314              1522.5986              1532.3941
 Red. masses --      2.4126                12.2817                12.1861
 Frc consts  --      3.1827                16.7756                16.8600
 IR Inten    --      0.0017               353.2255               417.0461

                     97                     98                     99
                      A                      A                      A
 Frequencies --   1637.4497              1643.5583              1643.9869
 Red. masses --     12.0233                 7.1864                 7.1755
 Frc consts  --     18.9937                11.4375                11.4261
 IR Inten    --      0.0000                 0.0000                 4.5733

                    100                    101                    102
                      A                      A                      A
 Frequencies --   1646.5550              1646.5616              1675.4029
 Red. masses --      6.8450                 6.8408                11.9678
 Frc consts  --     10.9339                10.9273                19.7926
 IR Inten    --      0.0132                27.8755                 0.0000

                    103                    104                    105
                      A                      A                      A
 Frequencies --   1793.3611              1797.5661              1841.2051
 Red. masses --     13.0831                13.0832                13.0443
 Frc consts  --     24.7911                24.9077                26.0541
 IR Inten    --      0.0000              1186.4195                84.0016

                    106                    107                    108
                      A                      A                      A
 Frequencies --   1845.1566              3172.9516              3172.9577
 Red. masses --     13.0326                 1.0874                 1.0874
 Frc consts  --     26.1425                 6.4503                 6.4503
 IR Inten    --      0.0000                 1.4228                 1.5757

                    109                    110                    111
                      A                      A                      A
 Frequencies --   3186.2561              3186.2617              3198.1806
 Red. masses --      1.0909                 1.0909                 1.0941
 Frc consts  --      6.5255                 6.5255                 6.5933
 IR Inten    --      8.5791                 1.5250                 0.8618

                    112                    113                    114
                      A                      A                      A
 Frequencies --   3198.1822              3201.5368              3201.5634
 Red. masses --      1.0941                 1.0967                 1.0967
 Frc consts  --      6.5934                 6.6232                 6.6234
 IR Inten    --      2.1686                20.1412                 0.0023

 - Thermochemistry -
 -------------------
 Temperature   298.150 Kelvin.  Pressure   1.00000 Atm.
 Atom     1 has atomic number  9 and mass  18.99840

 Molecular mass:   440.04202 amu.
 Principal axes and moments of inertia in atomic units:
                           1         2         3
     Eigenvalues --  3834.44446********************
           X            0.99926   0.00802   0.03767
           Y           -0.00743   0.99985  -0.01577
           Z           -0.03779   0.01548   0.99917
 This molecule is an asymmetric top.
 Rotational symmetry number  1.
 Warning -- assumption of classical behavior for rotation
           may cause significant error
 Rotational temperatures (Kelvin)      0.02259     0.00299     0.00284
 Rotational constants (GHZ):           0.47067     0.06225     0.05909
 Zero-point vibrational energy     678015.7 (Joules/Mol)
                                  162.04964 (Kcal/Mol)
 Warning -- explicit consideration of  39 degrees of freedom as
           vibrations may cause significant error
 Vibrational temperatures:     27.38    31.66    34.89    51.83    55.91
          (Kelvin)             89.73   160.10   171.79   193.37   197.32
                              199.07   204.02   214.95   249.07   255.13
                              262.42   335.03   352.00   358.38   393.93
                              425.56   438.77   462.29   492.51   506.17
                              512.55   575.23   597.40   600.81   601.34
                              609.70   656.64   666.33   666.63   726.46
                              771.73   771.80   829.73   834.63   930.29
                              954.06   956.77   974.49   975.99   985.17
                             1015.68  1040.11  1043.64  1055.10  1070.42
                             1091.14  1100.03  1126.34  1152.25  1154.32
                             1155.02  1161.37  1281.70  1284.55  1308.04
                             1308.29  1384.93  1418.08  1418.08  1425.92
                             1460.38  1460.41  1477.41  1487.71  1538.26
                             1564.68  1571.82  1603.67  1611.93  1659.88
                             1700.55  1712.39  1716.35  1716.47  1727.55
                             1761.10  1847.76  1880.75  1882.90  1882.99
                             1934.23  1976.74  1995.40  1996.71  2147.64
                             2150.12  2150.51  2152.88  2152.89  2190.68
                             2204.77  2355.92  2364.71  2365.33  2369.03
                             2369.03  2410.53  2580.25  2586.30  2649.08
                             2654.77  4565.17  4565.18  4584.31  4584.32
                             4601.47  4601.47  4606.30  4606.34

 Zero-point correction=                           0.258243 (Hartree/Particle)
 Thermal correction to Energy=                    0.282996
 Thermal correction to Enthalpy=                  0.283940
 Thermal correction to Gibbs Free Energy=         0.201257
 Sum of electronic and zero-point Energies=          -1653.185905
 Sum of electronic and thermal Energies=             -1653.161151
 Sum of electronic and thermal Enthalpies=           -1653.160207
 Sum of electronic and thermal Free Energies=        -1653.242890

                     E (Thermal)             CV                S
                      KCal/Mol        Cal/Mol-Kelvin    Cal/Mol-Kelvin
 Total                  177.583             94.345            174.022
 Electronic               0.000              0.000              0.000
 Translational            0.889              2.981             44.135
 Rotational               0.889              2.981             36.472
 Vibrational            175.805             88.383             93.416
 Vibration     1          0.593              1.986              6.733
 Vibration     2          0.593              1.985              6.445
 Vibration     3          0.593              1.985              6.252
 Vibration     4          0.594              1.982              5.466
 Vibration     5          0.594              1.981              5.316
 Vibration     6          0.597              1.972              4.381
 Vibration     7          0.607              1.940              3.247
 Vibration     8          0.609              1.933              3.110
 Vibration     9          0.613              1.919              2.882
 Vibration    10          0.614              1.916              2.843
 Vibration    11          0.614              1.915              2.826
 Vibration    12          0.615              1.911              2.779
 Vibration    13          0.618              1.903              2.680
 Vibration    14          0.627              1.876              2.401
 Vibration    15          0.628              1.870              2.356
 Vibration    16          0.630              1.864              2.304
 Vibration    17          0.654              1.791              1.857
 Vibration    18          0.660              1.772              1.769
 Vibration    19          0.662              1.764              1.737
 Vibration    20          0.676              1.722              1.572
 Vibration    21          0.690              1.682              1.441
 Vibration    22          0.696              1.664              1.390
 Vibration    23          0.707              1.633              1.303
 Vibration    24          0.721              1.591              1.201
 Vibration    25          0.728              1.572              1.158
 Vibration    26          0.732              1.562              1.138
 Vibration    27          0.766              1.471              0.963
 Vibration    28          0.779              1.437              0.908
 Vibration    29          0.781              1.432              0.900
 Vibration    30          0.781              1.431              0.899
 Vibration    31          0.786              1.419              0.879
 Vibration    32          0.815              1.347              0.777
 Vibration    33          0.821              1.332              0.757
 Vibration    34          0.821              1.331              0.756
 Vibration    35          0.860              1.239              0.646
 Vibration    36          0.891              1.170              0.573
 Vibration    37          0.891              1.169              0.573
 Vibration    38          0.933              1.082              0.492
 Vibration    39          0.937              1.074              0.485

 Optimization completed.
    -- Stationary point found.
 Normal termination of Gaussian 16 at Tue Jan 12 15:56:42 2021.
