 Gaussian 16, Revision C.01,
 Gaussian 16:  ES64L-G16RevC.01  3-Jul-2019

 --------------------------------------------------------------------
 #P B3LYP/6-311++G(d,p) EmpiricalDispersion=GD3 freq(noraman) SCF=YQC
 --------------------------------------------------------------------

 --------------------------------------------
 Restart from F_BoronicAcid_BoronateEster.log
 --------------------------------------------
 Symbolic Z-matrix:
 Charge =  0 Multiplicity = 1

                         Standard orientation:
 ---------------------------------------------------------------------
 Center     Atomic      Atomic             Coordinates (Angstroms)
 Number     Number       Type             X           Y           Z
 ---------------------------------------------------------------------
      1          9           0       -1.316016    2.372708    0.000001
      2          6           0       -0.694311    1.185467    0.000000
      3          6           0        0.694311    1.185467    0.000000
      4          9           0        1.316018    2.372707    0.000001
      5          6           0        1.437209    0.000000    0.000000
      6          6           0        0.694311   -1.185467   -0.000001
      7          9           0        1.316017   -2.372707   -0.000001
      8          6           0       -0.694311   -1.185467    0.000000
      9          9           0       -1.316018   -2.372707   -0.000001
     10          6           0       -1.437209    0.000000    0.000000
     11          5           0        2.989756    0.000000    0.000000
     12          8           0        3.772065   -1.143725    0.000001
     13          8           0        3.772065    1.143724   -0.000001
     14          6           0        5.076294   -0.696073    0.000001
     15          6           0        5.076294    0.696073   -0.000001
     16          6           0        6.246043   -1.431403    0.000001
     17          6           0        6.246043    1.431402   -0.000001
     18          6           0        7.439571   -0.699538    0.000001
     19          6           0        7.439571    0.699537    0.000000
     20          1           0        6.231365   -2.513552    0.000002
     21          1           0        6.231365    2.513551   -0.000002
     22          1           0        8.383857   -1.230683    0.000001
     23          1           0        8.383857    1.230682   -0.000001
     24          5           0       -2.989756    0.000000    0.000000
     25          8           0       -3.772065    1.143725   -0.000001
     26          8           0       -3.772064   -1.143725    0.000001
     27          6           0       -5.076294    0.696073    0.000000
     28          6           0       -5.076294   -0.696073    0.000000
     29          6           0       -6.246043    1.431403   -0.000001
     30          6           0       -6.246043   -1.431403    0.000001
     31          6           0       -7.439571    0.699538    0.000000
     32          6           0       -7.439571   -0.699538    0.000000
     33          1           0       -6.231365    2.513552   -0.000002
     34          1           0       -6.231365   -2.513552    0.000001
     35          1           0       -8.383857    1.230683   -0.000001
     36          1           0       -8.383857   -1.230683    0.000001
 ---------------------------------------------------------------------

 SCF Done:  E(RB3LYP) =  -1441.30992134     a.u. after    7 cycles
 SCF Done:  E(RB3LYP) =  -1441.30992702     A.U. after    9 cycles

 The electronic state is 1-A.
 Alpha  occ. eigenvalues --  -24.71473 -24.71473 -24.71472 -24.71472 -19.18299
 Alpha  occ. eigenvalues --  -19.18299 -19.18297 -19.18296 -10.29805 -10.29804
 Alpha  occ. eigenvalues --  -10.29749 -10.29748 -10.25055 -10.25055 -10.24999
 Alpha  occ. eigenvalues --  -10.24999 -10.21739 -10.21738 -10.19763 -10.19763
 Alpha  occ. eigenvalues --  -10.19762 -10.19762 -10.19346 -10.19346 -10.19294
 Alpha  occ. eigenvalues --  -10.19294  -6.82379  -6.82379  -1.26602  -1.26541
 Alpha  occ. eigenvalues --   -1.25037  -1.24999  -1.13140  -1.13140  -1.05569
 Alpha  occ. eigenvalues --   -1.05569  -0.90879  -0.87552  -0.87516  -0.80568
 Alpha  occ. eigenvalues --   -0.78433  -0.77391  -0.77384  -0.75706  -0.75315
 Alpha  occ. eigenvalues --   -0.69044  -0.66348  -0.64280  -0.64114  -0.63750
 Alpha  occ. eigenvalues --   -0.63272  -0.61166  -0.60468  -0.58815  -0.57965
 Alpha  occ. eigenvalues --   -0.57799  -0.55045  -0.54190  -0.53466  -0.53382
 Alpha  occ. eigenvalues --   -0.53148  -0.52443  -0.50497  -0.50445  -0.49182
 Alpha  occ. eigenvalues --   -0.48740  -0.48734  -0.48639  -0.47748  -0.47482
 Alpha  occ. eigenvalues --   -0.46544  -0.46532  -0.46230  -0.44899  -0.43584
 Alpha  occ. eigenvalues --   -0.42757  -0.42556  -0.42398  -0.40721  -0.39519
 Alpha  occ. eigenvalues --   -0.39516  -0.39455  -0.39429  -0.38662  -0.38620
 Alpha  occ. eigenvalues --   -0.38324  -0.38085  -0.37140  -0.36505  -0.36487
 Alpha  occ. eigenvalues --   -0.36338  -0.30582  -0.26976  -0.26976  -0.26612
 Alpha  occ. eigenvalues --   -0.25557  -0.24844
 Alpha virt. eigenvalues --   -0.09559  -0.03288  -0.02812  -0.02696  -0.01580
 Alpha virt. eigenvalues --   -0.01537  -0.01377  -0.00789  -0.00529   0.00701
 Alpha virt. eigenvalues --    0.00741   0.00746   0.00983   0.01752   0.01845

 Mulliken charges:
               1
     1  F   -0.118709
     2  C   -0.579407
     3  C   -0.579407
     4  F   -0.118709
     5  C    0.977756
     6  C   -0.579407
     7  F   -0.118709
     8  C   -0.579407
     9  F   -0.118709
    10  C    0.977757
    11  B    0.752831
    12  O   -0.181477
    13  O   -0.181477
    14  C    0.159748
    15  C    0.159750
    16  C   -0.271264
    17  C   -0.271263
    18  C   -0.230115
    19  C   -0.230116
    20  H    0.180988
    21  H    0.180988
    22  H    0.174941
    23  H    0.174941
    24  B    0.752831
    25  O   -0.181477
    26  O   -0.181477
    27  C    0.159749
    28  C    0.159749
    29  C   -0.271263
    30  C   -0.271264
    31  C   -0.230115
    32  C   -0.230116
    33  H    0.180988
    34  H    0.180988
    35  H    0.174941
    36  H    0.174941
 Sum of Mulliken charges =  -0.00000

 Dipole moment (field-independent basis, Debye):
    X=             -0.0000    Y=             -0.0000    Z=             -0.0000  Tot=              0.0000
 Quadrupole moment (field-independent basis, Debye-Ang):
   XX=           -111.0221   YY=           -160.2747   ZZ=           -156.7103
   XY=              0.0000   XZ=             -0.0000   YZ=             -0.0000

  Exact polarizability:     452.770       0.000     234.750       0.000      -0.000     121.077
 Approx polarizability:     547.888       0.000     436.095       0.000      -0.000     192.915

                      1                      2                      3
                      A                      A                      A
 Frequencies --     16.6354                17.0898                20.2391
 Red. masses --      5.3024                 7.4491                 6.9698
 Frc consts  --      0.0009                 0.0013                 0.0017
 IR Inten    --      0.0000                 0.4370                 0.0000

                      4                      5                      6
                      A                      A                      A
 Frequencies --     43.6256                49.9004                91.3720
 Red. masses --      6.8704                 8.8345                 8.8985
 Frc consts  --      0.0077                 0.0130                 0.0438
 IR Inten    --      0.5969                 0.0000                 0.0000

                      7                      8                      9
                      A                      A                      A
 Frequencies --    102.9234               122.4685               133.8507
 Red. masses --      8.9039                18.4963                10.9382
 Frc consts  --      0.0556                 0.1634                 0.1155
 IR Inten    --      0.3108                 0.0000                 0.0000

                     10                     11                     12
                      A                      A                      A
 Frequencies --    162.0817               208.7252               226.8283
 Red. masses --      8.6923                12.0161                 9.6203
 Frc consts  --      0.1345                 0.3084                 0.2916
 IR Inten    --      0.0000                 5.0362                 0.0000

                     13                     14                     15
                      A                      A                      A
 Frequencies --    227.6009               243.8974               244.1595
 Red. masses --      8.2126                 6.6043                 6.6128
 Frc consts  --      0.2507                 0.2315                 0.2323
 IR Inten    --      0.0613                 0.0000                 0.0000

                     16                     17                     18
                      A                      A                      A
 Frequencies --    250.5674               282.2878               315.0968
 Red. masses --     12.5153                 7.9059                 7.0159
 Frc consts  --      0.4630                 0.3712                 0.4104
 IR Inten    --      2.8748                 0.0000                 0.8574

                     19                     20                     21
                      A                      A                      A
 Frequencies --    316.7673               325.1640               383.1474
 Red. masses --     18.7201                18.1899                 7.3728
 Frc consts  --      1.1067                 1.1331                 0.6377
 IR Inten    --      0.0000                 0.7894                 0.0000

                     22                     23                     24
                      A                      A                      A
 Frequencies --    410.9140               426.7758               430.1000
 Red. masses --     13.7871                12.6056                 3.0896
 Frc consts  --      1.3716                 1.3527                 0.3367
 IR Inten    --      0.4839                 0.0000                11.1999

                     25                     26                     27
                      A                      A                      A
 Frequencies --    437.7077               443.0316               474.6416
 Red. masses --      3.4000                13.2513                 7.8878
 Frc consts  --      0.3838                 1.5324                 1.0470
 IR Inten    --      0.0000                 0.0000                 0.0000

                     28                     29                     30
                      A                      A                      A
 Frequencies --    483.0501               496.3512               568.1757
 Red. masses --      7.3837                15.1820                10.6674
 Frc consts  --      1.0151                 2.2037                 2.0290
 IR Inten    --      1.5770                 0.0000                 0.8874

                     31                     32                     33
                      A                      A                      A
 Frequencies --    572.3334               578.4833               582.7363
 Red. masses --      8.5218                 8.6290                 3.9799
 Frc consts  --      1.6447                 1.7013                 0.7963
 IR Inten    --      0.0000                 1.4770                 0.0000

                     34                     35                     36
                      A                      A                      A
 Frequencies --    582.7639               624.2624               624.2875
 Red. masses --      3.9784                 7.3401                 7.3172
 Frc consts  --      0.7961                 1.6853                 1.6802
 IR Inten    --      0.0000                 0.0000                 0.3931

                     37                     38                     39
                      A                      A                      A
 Frequencies --    668.4345               701.2973               729.6658
 Red. masses --      9.9500                12.1941                11.3696
 Frc consts  --      2.6193                 3.5335                 3.5665
 IR Inten    --      0.0000                 0.0000                21.3434

                     40                     41                     42
                      A                      A                      A
 Frequencies --    730.6946               751.4023               755.6961
 Red. masses --      6.4143                 1.8105                 4.7230
 Frc consts  --      2.0178                 0.6023                 1.5891
 IR Inten    --      7.8689                 0.0000                 0.0000

                     43                     44                     45
                      A                      A                      A
 Frequencies --    755.8682               756.2098               758.6935
 Red. masses --      1.3503                 4.6916                12.1376
 Frc consts  --      0.4545                 1.5807                 4.1164
 IR Inten    --    210.8304                 0.0000                 0.0000

                     46                     47                     48
                      A                      A                      A
 Frequencies --    759.4968               764.3798               827.2603
 Red. masses --      3.0111                 8.7514                 6.4046
 Frc consts  --      1.0234                 3.0126                 2.5824
 IR Inten    --      0.0000                 0.0000               119.8614

                     49                     50                     51
                      A                      A                      A
 Frequencies --    831.3103               860.9874               861.0981
 Red. masses --      7.5646                 1.4281                 1.4302
 Frc consts  --      3.0801                 0.6237                 0.6248
 IR Inten    --      0.0000                 0.0000                 0.0000

                     52                     53                     54
                      A                      A                      A
 Frequencies --    866.9132               876.8539               880.0307
 Red. masses --     14.1420                 7.1237                 7.2157
 Frc consts  --      6.2620                 3.2271                 3.2925
 IR Inten    --     47.2771                16.9741                 0.0000

                     55                     56                     57
                      A                      A                      A
 Frequencies --    937.9642               937.9786               961.3296
 Red. masses --      1.3743                 1.3742                12.8284
 Frc consts  --      0.7123                 0.7124                 6.9850
 IR Inten    --      0.0000                 8.5640                 0.0000

                     58                     59                     60
                      A                      A                      A
 Frequencies --    972.9557               972.9893               974.3588
 Red. masses --      1.2599                 1.2602                14.1084
 Frc consts  --      0.7027                 0.7029                 7.8916
 IR Inten    --      0.0000                 0.0000               181.9220

                     61                     62                     63
                      A                      A                      A
 Frequencies --   1022.8396              1023.2594              1104.3037
 Red. masses --      1.9700                 1.9557                 3.0307
 Frc consts  --      1.2143                 1.2065                 2.1776
 IR Inten    --     20.6727                 0.0000                 0.0000

                     64                     65                     66
                      A                      A                      A
 Frequencies --   1104.6573              1132.1461              1155.4930
 Red. masses --      2.9561                 9.7545                 1.9625
 Frc consts  --      2.1254                 7.3665                 1.5438
 IR Inten    --      0.0696                 0.0000                29.3773

                     67                     68                     69
                      A                      A                      A
 Frequencies --   1156.5684              1180.5302              1181.1019
 Red. masses --      2.0389                 1.1778                 1.1610
 Frc consts  --      1.6069                 0.9671                 0.9542
 IR Inten    --      0.0000                 1.1916                 0.0000

                     70                     71                     72
                      A                      A                      A
 Frequencies --   1199.6675              1256.6253              1258.4271
 Red. masses --     10.2056                 4.4385                 9.9184
 Frc consts  --      8.6538                 4.1295                 9.2544
 IR Inten    --    263.5513               681.3061                37.2256

                     73                     74                     75
                      A                      A                      A
 Frequencies --   1258.4545              1268.0672              1301.3026
 Red. masses --      4.4328                 9.6777                 1.5313
 Frc consts  --      4.1362                 9.1687                 1.5278
 IR Inten    --      0.0034                 0.0000                 8.2953

                     76                     77                     78
                      A                      A                      A
 Frequencies --   1301.4099              1306.2211              1328.4738
 Red. masses --      1.5300                11.4252                 9.7412
 Frc consts  --      1.5267                11.4854                10.1291
 IR Inten    --      0.0000                 8.6354                 0.0000

                     79                     80                     81
                      A                      A                      A
 Frequencies --   1350.2270              1379.6487              1389.8419
 Red. masses --      8.8910                 6.9521                 5.7844
 Frc consts  --      9.5502                 7.7966                 6.5832
 IR Inten    --    895.9942                 0.0000               214.7813

                     82                     83                     84
                      A                      A                      A
 Frequencies --   1409.5914              1474.4855              1477.0093
 Red. masses --      7.3875                12.1061                 5.9184
 Frc consts  --      8.6484                15.5073                 7.6071
 IR Inten    --      0.0000               600.6596               569.7919

                     85                     86                     87
                      A                      A                      A
 Frequencies --   1496.6323              1499.1823              1499.2506
 Red. masses --      2.9677                 2.4816                 2.4875
 Frc consts  --      3.9165                 3.2862                 3.2942
 IR Inten    --      0.0000                 0.0001                10.5881

                     88                     89                     90
                      A                      A                      A
 Frequencies --   1501.3162              1582.2782              1645.1267
 Red. masses --      3.7608                11.9265                 7.4891
 Frc consts  --      4.9942                17.5925                11.9420
 IR Inten    --      1.8559                 0.0000                10.9922

                     91                     92                     93
                      A                      A                      A
 Frequencies --   1645.3209              1654.9137              1655.3397
 Red. masses --      7.5149                 7.4578                 7.3933
 Frc consts  --     11.9861                12.0340                11.9361
 IR Inten    --      0.0001                 0.0000                 0.4220

                     94                     95                     96
                      A                      A                      A
 Frequencies --   1670.1720              3173.8102              3173.8113
 Red. masses --     11.8330                 1.0870                 1.0870
 Frc consts  --     19.4476                 6.4511                 6.4511
 IR Inten    --      0.0000                 0.0086                 3.6020

                     97                     98                     99
                      A                      A                      A
 Frequencies --   3188.4185              3188.4267              3203.6680
 Red. masses --      1.0916                 1.0916                 1.0943
 Frc consts  --      6.5382                 6.5382                 6.6171
 IR Inten    --     21.8133                 0.0002                 0.0012

                    100                    101                    102
                      A                      A                      A
 Frequencies --   3203.6706              3206.5562              3206.5738
 Red. masses --      1.0943                 1.0962                 1.0962
 Frc consts  --      6.6171                 6.6410                 6.6411
 IR Inten    --      6.8102                 6.9626                 0.0000

 - Thermochemistry -
 -------------------
 Temperature   298.150 Kelvin.  Pressure   1.00000 Atm.
 Atom     1 has atomic number  9 and mass  18.99840

 Molecular mass:   386.05448 amu.
 Principal axes and moments of inertia in atomic units:
                           1         2         3
     Eigenvalues --  2698.44405********************
           X            1.00000  -0.00000  -0.00000
           Y            0.00000   1.00000  -0.00000
           Z            0.00000   0.00000   1.00000
 This molecule is an asymmetric top.
 Rotational symmetry number  1.
 Warning -- assumption of classical behavior for rotation
           may cause significant error
 Rotational temperatures (Kelvin)      0.03210     0.00323     0.00293
 Rotational constants (GHZ):           0.66881     0.06723     0.06109
 Zero-point vibrational energy     615052.4 (Joules/Mol)
                                  147.00105 (Kcal/Mol)
 Warning -- explicit consideration of  34 degrees of freedom as
           vibrations may cause significant error
 Vibrational temperatures:     23.93    24.59    29.12    62.77    71.80
          (Kelvin)            131.46   148.08   176.20   192.58   233.20
                              300.31   326.36   327.47   350.91   351.29
                              360.51   406.15   453.35   455.76   467.84
                              551.26   591.21   614.04   618.82   629.76
                              637.42   682.90   695.00   714.14   817.48
                              823.46   832.31   838.43   838.47   898.17
                              898.21   961.73  1009.01  1049.83  1051.31
                             1081.10  1087.28  1087.53  1088.02  1091.59
                             1092.75  1099.77  1190.24  1196.07  1238.77
                             1238.93  1247.29  1261.60  1266.17  1349.52
                             1349.54  1383.14  1399.87  1399.91  1401.89
                             1471.64  1472.24  1588.85  1589.36  1628.91
                             1662.50  1664.04  1698.52  1699.34  1726.05
                             1808.00  1810.60  1810.64  1824.47  1872.28
                             1872.44  1879.36  1911.38  1942.68  1985.01
                             1999.67  2028.09  2121.46  2125.09  2153.32
                             2156.99  2157.09  2160.06  2276.55  2366.97
                             2367.25  2381.05  2381.66  2403.00  4566.41
                             4566.41  4587.42  4587.43  4609.36  4609.37
                             4613.52  4613.54

 Zero-point correction=                           0.234261 (Hartree/Particle)
 Thermal correction to Energy=                    0.255443
 Thermal correction to Enthalpy=                  0.256387
 Thermal correction to Gibbs Free Energy=         0.180958
 Sum of electronic and zero-point Energies=          -1441.075666
 Sum of electronic and thermal Energies=             -1441.054484
 Sum of electronic and thermal Enthalpies=           -1441.053540
 Sum of electronic and thermal Free Energies=        -1441.128969

                     E (Thermal)             CV                S
                      KCal/Mol        Cal/Mol-Kelvin    Cal/Mol-Kelvin
 Total                  160.293             82.478            158.754
 Electronic               0.000              0.000              0.000
 Translational            0.889              2.981             43.745
 Rotational               0.889              2.981             36.013
 Vibrational            158.515             76.516             78.996
 Vibration     1          0.593              1.986              7.000
 Vibration     2          0.593              1.986              6.946
 Vibration     3          0.593              1.986              6.611
 Vibration     4          0.595              1.980              5.087
 Vibration     5          0.595              1.978              4.821
 Vibration     6          0.602              1.955              3.630
 Vibration     7          0.605              1.947              3.398
 Vibration     8          0.610              1.930              3.061
 Vibration     9          0.613              1.920              2.890
 Vibration    10          0.622              1.889              2.525
 Vibration    11          0.642              1.827              2.055
 Vibration    12          0.650              1.800              1.904
 Vibration    13          0.651              1.799              1.898
 Vibration    14          0.659              1.773              1.774
 Vibration    15          0.659              1.772              1.772
 Vibration    16          0.663              1.762              1.727
 Vibration    17          0.681              1.706              1.520
 Vibration    18          0.702              1.645              1.335
 Vibration    19          0.704              1.642              1.327
 Vibration    20          0.709              1.625              1.284
 Vibration    21          0.752              1.506              1.027
 Vibration    22          0.775              1.447              0.923
 Vibration    23          0.788              1.412              0.869
 Vibration    24          0.791              1.405              0.858
 Vibration    25          0.798              1.388              0.834
 Vibration    26          0.803              1.376              0.817
 Vibration    27          0.831              1.306              0.725
 Vibration    28          0.839              1.288              0.702
 Vibration    29          0.852              1.258              0.667
 Vibration    30          0.924              1.100              0.508
 Vibration    31          0.929              1.091              0.500
 Vibration    32          0.935              1.078              0.488
 Vibration    33          0.940              1.069              0.480
 Vibration    34          0.940              1.069              0.480

 Optimization completed.
    -- Stationary point found.
 Normal termination of Gaussian 16 at Mon Aug  3 23:13:49 2020.
