 Gaussian 16, Revision C.01,
 Gaussian 16:  ES64L-G16RevC.01  3-Jul-2019

 ----------------------------------------------------------------------
 #P B3LYP/6-311++G(d,p) EmpiricalDispersion=GD3 freq(noraman) SCF=YQC N
 oSymm
 ----------------------------------------------------------------------

 ----------------------------------------------------------
 Restart from 3_Phenyl_Double_CarboxylicAnhydride_Imide.log
 ----------------------------------------------------------
 Symbolic Z-matrix:
 Charge =  0 Multiplicity = 1

                          Input orientation:
 ---------------------------------------------------------------------
 Center     Atomic      Atomic             Coordinates (Angstroms)
 Number     Number       Type             X           Y           Z
 ---------------------------------------------------------------------
      1          6           0        0.692958   -1.147662    0.021732
      2          6           0        1.394918    0.068517    0.023197
      3          6           0        0.701936    1.268441    0.021829
      4          6           0       -0.702242    1.268286    0.021764
      5          6           0       -1.394957    0.068208    0.020398
      6          6           0       -0.692726   -1.147816    0.021875
      7          6           0        2.866211   -0.233876    0.002823
      8          6           0        1.690861   -2.270346    0.043395
      9          7           0        2.956523   -1.643444    0.023752
     10          8           0        1.495303   -3.454401    0.076831
     11          8           0        3.793680    0.527697   -0.030517
     12          6           0        4.194614   -2.357864    0.024457
     13          6           0        4.363632   -3.447632   -0.830543
     14          1           0        3.556551   -3.755048   -1.481363
     15          6           0        5.569584   -4.142509   -0.821542
     16          1           0        5.699521   -4.992561   -1.481032
     17          6           0        6.603675   -3.747667    0.025801
     18          1           0        7.542477   -4.289281    0.026340
     19          6           0        6.427141   -2.654407    0.872453
     20          1           0        7.227521   -2.341053    1.532455
     21          6           0        5.221904   -1.958265    0.880116
     22          1           0        5.083498   -1.105348    1.530378
     23          6           0       -1.175934    2.693752    0.000012
     24          6           0        1.175312    2.694013    0.043583
     25          7           0       -0.000397    3.476696    0.021745
     26          8           0        2.298456    3.116624    0.078469
     27          8           0       -2.299169    3.116112   -0.034979
     28          6           0       -0.000552    4.906129    0.021671
     29          6           0        0.860107    5.596774   -0.832416
     30          1           0        1.530734    5.051088   -1.481988
     31          6           0        0.859219    6.988602   -0.824153
     32          1           0        1.531525    7.525634   -1.482943
     33          6           0       -0.000848    7.687402    0.021533
     34          1           0       -0.000963    8.771233    0.021479
     35          6           0       -0.860765    6.988502    0.867289
     36          1           0       -1.533184    7.525457    1.526026
     37          6           0       -0.861357    5.596675    0.875690
     38          1           0       -1.531867    5.050912    1.525317
     39          6           0       -1.690379   -2.270721    0.000171
     40          6           0       -2.866184   -0.234514    0.040783
     41          7           0       -2.956180   -1.644103    0.019925
     42          8           0       -3.793822    0.526850    0.074166
     43          8           0       -1.494557   -3.454737   -0.033095
     44          6           0       -4.194108   -2.358804    0.019367
     45          6           0       -5.221573   -1.959467   -0.836205
     46          1           0       -5.083426   -1.106537   -1.486505
     47          6           0       -6.426648   -2.655888   -0.828404
     48          1           0       -7.227164   -2.342738   -1.488338
     49          6           0       -6.602847   -3.749165    0.018297
     50          1           0       -7.541523   -4.290996    0.017862
     51          6           0       -5.568583   -4.143743    0.865550
     52          1           0       -5.698258   -4.993807    1.525076
     53          6           0       -4.362790   -3.448587    0.874414
     54          1           0       -3.555576   -3.755797    1.525165
 ---------------------------------------------------------------------

 SCF Done:  E(RB3LYP) =  -1768.41173468     a.u. after    8 cycles
 SCF Done:  E(RB3LYP) =  -1768.41175715     A.U. after   11 cycles

 Alpha  occ. eigenvalues --  -19.14585 -19.14585 -19.14585 -19.14584 -19.14583
 Alpha  occ. eigenvalues --  -19.14583 -14.39841 -14.39840 -14.39840 -10.32772
 Alpha  occ. eigenvalues --  -10.32772 -10.32772 -10.32772 -10.32771 -10.32771
 Alpha  occ. eigenvalues --  -10.25794 -10.25770 -10.25770 -10.25713 -10.25713
 Alpha  occ. eigenvalues --  -10.25686 -10.24001 -10.24000 -10.24000 -10.19463
 Alpha  occ. eigenvalues --  -10.19462 -10.19462 -10.19462 -10.19462 -10.19462
 Alpha  occ. eigenvalues --  -10.19178 -10.19178 -10.19178 -10.19163 -10.19163
 Alpha  occ. eigenvalues --  -10.19163 -10.19066 -10.19066 -10.19066  -1.10961
 Alpha  occ. eigenvalues --   -1.10662  -1.10662  -1.09035  -1.09034  -1.08785
 Alpha  occ. eigenvalues --   -1.00123  -0.99659  -0.99658  -0.93971  -0.88635
 Alpha  occ. eigenvalues --   -0.88635  -0.87338  -0.84602  -0.84602  -0.78200
 Alpha  occ. eigenvalues --   -0.77366  -0.77365  -0.76936  -0.76936  -0.76936
 Alpha  occ. eigenvalues --   -0.72708  -0.72707  -0.69515  -0.69257  -0.67054
 Alpha  occ. eigenvalues --   -0.67054  -0.63682  -0.63682  -0.63297  -0.61954
 Alpha  occ. eigenvalues --   -0.61954  -0.60956  -0.57787  -0.57644  -0.57644
 Alpha  occ. eigenvalues --   -0.56380  -0.53341  -0.53341  -0.53246  -0.52270
 Alpha  occ. eigenvalues --   -0.51049  -0.51049  -0.50634  -0.50634  -0.50207
 Alpha  occ. eigenvalues --   -0.50207  -0.49743  -0.48274  -0.47460  -0.47361
 Alpha  occ. eigenvalues --   -0.47360  -0.46513  -0.46511  -0.46511  -0.45674
 Alpha  occ. eigenvalues --   -0.45673  -0.45493  -0.44686  -0.44685  -0.44303
 Alpha  occ. eigenvalues --   -0.44151  -0.44151  -0.43357  -0.43357  -0.42595
 Alpha  occ. eigenvalues --   -0.41575  -0.39274  -0.39273  -0.38948  -0.38428
 Alpha  occ. eigenvalues --   -0.38385  -0.38385  -0.37163  -0.37163  -0.37155
 Alpha  occ. eigenvalues --   -0.34382  -0.32925  -0.32924  -0.32834  -0.32506
 Alpha  occ. eigenvalues --   -0.32505  -0.31989  -0.31988  -0.29506  -0.29505
 Alpha  occ. eigenvalues --   -0.29185  -0.27306  -0.27229  -0.27229  -0.26304
 Alpha  occ. eigenvalues --   -0.26163  -0.26163
 Alpha virt. eigenvalues --   -0.13640  -0.13638  -0.09199  -0.04062  -0.03679
 Alpha virt. eigenvalues --   -0.03679  -0.03087  -0.02958  -0.02958  -0.01818
 Alpha virt. eigenvalues --   -0.00769  -0.00769  -0.00356   0.00049   0.00050

 Mulliken charges:
               1
     1  C    0.165825
     2  C    0.165941
     3  C    0.166082
     4  C    0.166073
     5  C    0.165975
     6  C    0.165799
     7  C   -0.342879
     8  C   -0.342118
     9  N    0.470119
    10  O   -0.180783
    11  O   -0.180697
    12  C   -0.661755
    13  C    0.195267
    14  H    0.202406
    15  C   -0.001427
    16  H    0.185433
    17  C   -0.418619
    18  H    0.161181
    19  C   -0.001278
    20  H    0.185426
    21  C    0.195512
    22  H    0.202408
    23  C   -0.342561
    24  C   -0.342540
    25  N    0.470121
    26  O   -0.180770
    27  O   -0.180776
    28  C   -0.661442
    29  C    0.195275
    30  H    0.202423
    31  C   -0.001568
    32  H    0.185426
    33  C   -0.418577
    34  H    0.161182
    35  C   -0.001444
    36  H    0.185428
    37  C    0.195342
    38  H    0.202425
    39  C   -0.342118
    40  C   -0.342915
    41  N    0.470094
    42  O   -0.180704
    43  O   -0.180781
    44  C   -0.661588
    45  C    0.195557
    46  H    0.202411
    47  C   -0.001221
    48  H    0.185427
    49  C   -0.418612
    50  H    0.161181
    51  C   -0.001619
    52  H    0.185431
    53  C    0.195216
    54  H    0.202406
 Sum of Mulliken charges =   0.00000

 Dipole moment (field-independent basis, Debye):
    X=              0.0000    Y=              0.0020    Z=             -0.0000  Tot=              0.0020
 Quadrupole moment (field-independent basis, Debye-Ang):
   XX=           -212.9030   YY=           -212.9219   ZZ=           -211.4084
   XY=             -0.0005   XZ=             -0.0071   YZ=             -0.0002

  Exact polarizability:     518.635      -0.001     518.576       0.171      -0.010     226.917
 Approx polarizability:     775.077      -0.003     774.991       0.244      -0.011     398.009

                      1                      2                      3
                      A                      A                      A
 Frequencies --     20.4893                27.2721                27.8611
 Red. masses --      6.5397                 6.0175                 6.0825
 Frc consts  --      0.0016                 0.0026                 0.0028
 IR Inten    --      0.5418                 0.0007                 0.0009

                      4                      5                      6
                      A                      A                      A
 Frequencies --     37.1565                47.9704                48.0182
 Red. masses --      4.7603                 5.6364                 5.6452
 Frc consts  --      0.0039                 0.0076                 0.0077
 IR Inten    --      0.0005                 0.5887                 0.5818

                      7                      8                      9
                      A                      A                      A
 Frequencies --     50.2165                50.3912                66.9285
 Red. masses --      6.3503                 6.3446                 7.4031
 Frc consts  --      0.0094                 0.0095                 0.0195
 IR Inten    --      0.0263                 0.0297                 0.1418

                     10                     11                     12
                      A                      A                      A
 Frequencies --     67.1000                70.6036                88.5964
 Red. masses --      7.2918                 7.8324                 6.2704
 Frc consts  --      0.0193                 0.0230                 0.0290
 IR Inten    --      0.1424                 0.0004                 0.0377

                     13                     14                     15
                      A                      A                      A
 Frequencies --    131.9354               133.0143               133.0893
 Red. masses --     11.4471                 8.6429                 8.6433
 Frc consts  --      0.1174                 0.0901                 0.0902
 IR Inten    --     12.6771                 0.4506                 0.4622

                     16                     17                     18
                      A                      A                      A
 Frequencies --    151.6287               170.1256               170.1257
 Red. masses --      7.6544                 6.9267                 6.9272
 Frc consts  --      0.1037                 0.1181                 0.1181
 IR Inten    --      4.3554                 2.0125                 2.0119

                     19                     20                     21
                      A                      A                      A
 Frequencies --    195.8443               249.8248               249.8436
 Red. masses --      7.2608                 8.2296                 8.2309
 Frc consts  --      0.1641                 0.3026                 0.3027
 IR Inten    --      0.0000                 1.2323                 1.2334

                     22                     23                     24
                      A                      A                      A
 Frequencies --    267.1165               267.1406               274.9801
 Red. masses --      9.2012                 9.2030                 5.2927
 Frc consts  --      0.3868                 0.3870                 0.2358
 IR Inten    --      1.0173                 1.0163                 0.2807

                     25                     26                     27
                      A                      A                      A
 Frequencies --    292.8486               292.8652               302.8668
 Red. masses --      7.5202                 7.5243                14.7111
 Frc consts  --      0.3800                 0.3802                 0.7951
 IR Inten    --      4.1651                 4.1698                 0.0145

                     28                     29                     30
                      A                      A                      A
 Frequencies --    316.4279               316.4416               334.3109
 Red. masses --     11.5638                11.5609                13.6711
 Frc consts  --      0.6822                 0.6821                 0.9002
 IR Inten    --      7.7684                 7.7617                 0.0000

                     31                     32                     33
                      A                      A                      A
 Frequencies --    401.4189               405.5272               405.5464
 Red. masses --      6.4408                 6.9280                 6.9287
 Frc consts  --      0.6115                 0.6713                 0.6714
 IR Inten    --      0.0958                 0.6346                 0.6319

                     34                     35                     36
                      A                      A                      A
 Frequencies --    415.1633               415.2375               415.2491
 Red. masses --      2.8996                 2.9000                 2.8989
 Frc consts  --      0.2945                 0.2946                 0.2945
 IR Inten    --      0.0586                 0.0464                 0.1049

                     37                     38                     39
                      A                      A                      A
 Frequencies --    490.5588               490.5782               513.0668
 Red. masses --      9.8608                 9.8573                11.3256
 Frc consts  --      1.3981                 1.3977                 1.7565
 IR Inten    --      0.2582                 0.2653                44.5758

                     40                     41                     42
                      A                      A                      A
 Frequencies --    513.1073               516.7051               519.2559
 Red. masses --     11.3490                 3.3548                 3.6336
 Frc consts  --      1.7605                 0.5277                 0.5772
 IR Inten    --     44.5021                15.3713                 2.2152

                     43                     44                     45
                      A                      A                      A
 Frequencies --    519.2971               595.2469               604.0954
 Red. masses --      3.6345                11.6228                11.6801
 Frc consts  --      0.5775                 2.4264                 2.5114
 IR Inten    --      2.1542                 0.0000                 0.0000

                     46                     47                     48
                      A                      A                      A
 Frequencies --    628.1566               628.5299               628.5388
 Red. masses --     10.0479                10.4073                10.4047
 Frc consts  --      2.3359                 2.4224                 2.4218
 IR Inten    --      0.0551                40.6805                40.5844

                     49                     50                     51
                      A                      A                      A
 Frequencies --    630.4419               631.1971               631.1985
 Red. masses --      6.4418                 6.6319                 6.6305
 Frc consts  --      1.5085                 1.5567                 1.5564
 IR Inten    --      0.7667                 5.8109                 5.7899

                     52                     53                     54
                      A                      A                      A
 Frequencies --    694.3627               697.9286               697.9379
 Red. masses --      3.5757                 2.2471                 2.2457
 Frc consts  --      1.0157                 0.6449                 0.6445
 IR Inten    --     14.7312                 7.7756                 7.7766

                     55                     56                     57
                      A                      A                      A
 Frequencies --    705.0371               709.5743               709.5998
 Red. masses --      3.0275                 6.1973                 6.2038
 Frc consts  --      0.8867                 1.8384                 1.8405
 IR Inten    --     36.4249                12.3298                12.2869

                     58                     59                     60
                      A                      A                      A
 Frequencies --    732.7640               747.9168               747.9178
 Red. masses --      8.2847                 2.7830                 2.7848
 Frc consts  --      2.6209                 0.9172                 0.9178
 IR Inten    --     15.2251                54.3268                54.3768

                     61                     62                     63
                      A                      A                      A
 Frequencies --    760.2909               760.3004               767.7922
 Red. masses --     10.4687                10.4692                12.0934
 Frc consts  --      3.5654                 3.5656                 4.2004
 IR Inten    --      9.4194                 9.3828                 0.0001

                     64                     65                     66
                      A                      A                      A
 Frequencies --    769.0745               783.4064               783.4110
 Red. masses --      1.9337                 3.5104                 3.5031
 Frc consts  --      0.6739                 1.2694                 1.2667
 IR Inten    --    104.3179                 9.6329                 9.5718

                     67                     68                     69
                      A                      A                      A
 Frequencies --    790.3981               790.4082               820.3387
 Red. masses --      8.3803                 8.3950                 6.8547
 Frc consts  --      3.0846                 3.0901                 2.7178
 IR Inten    --      2.3797                 2.3988                 0.0000

                     70                     71                     72
                      A                      A                      A
 Frequencies --    842.9841               842.9959               843.4722
 Red. masses --      1.2515                 1.2516                 1.2624
 Frc consts  --      0.5240                 0.5240                 0.5292
 IR Inten    --      0.0051                 0.0041                 0.0000

                     73                     74                     75
                      A                      A                      A
 Frequencies --    889.6186               901.3786               901.4130
 Red. masses --      6.6278                 7.6464                 7.6443
 Frc consts  --      3.0905                 3.6604                 3.6596
 IR Inten    --      0.0188                 2.9340                 2.9328

                     76                     77                     78
                      A                      A                      A
 Frequencies --    927.2494               927.2592               929.4161
 Red. masses --      1.4534                 1.4532                 1.5289
 Frc consts  --      0.7363                 0.7362                 0.7781
 IR Inten    --      1.7833                 1.7838                 5.3320

                     79                     80                     81
                      A                      A                      A
 Frequencies --    982.4516               982.4547               982.4767
 Red. masses --      1.3738                 1.3739                 1.3739
 Frc consts  --      0.7813                 0.7813                 0.7814
 IR Inten    --      0.0049                 0.0047                 0.0000

                     82                     83                     84
                      A                      A                      A
 Frequencies --   1003.9046              1003.9483              1003.9537
 Red. masses --      1.2949                 1.2953                 1.2953
 Frc consts  --      0.7689                 0.7692                 0.7692
 IR Inten    --      0.0179                 0.2998                 0.3026

                     85                     86                     87
                      A                      A                      A
 Frequencies --   1018.6201              1018.6237              1018.7565
 Red. masses --      6.1698                 6.1694                 6.1693
 Frc consts  --      3.7718                 3.7716                 3.7725
 IR Inten    --      2.2734                 2.2803                 0.0007

                     88                     89                     90
                      A                      A                      A
 Frequencies --   1043.8782              1043.8788              1050.7375
 Red. masses --      4.6343                 4.6299                 2.3486
 Frc consts  --      2.9753                 2.9725                 1.5277
 IR Inten    --      9.0356                 9.0286                 0.0000

                     91                     92                     93
                      A                      A                      A
 Frequencies --   1060.8878              1060.8908              1100.8554
 Red. masses --      2.8383                 2.8360                 2.4206
 Frc consts  --      1.8821                 1.8806                 1.7284
 IR Inten    --      1.5161                 1.5059                12.6102

                     94                     95                     96
                      A                      A                      A
 Frequencies --   1104.1189              1104.1469              1141.0113
 Red. masses --      2.2133                 2.2107                 3.1250
 Frc consts  --      1.5897                 1.5879                 2.3971
 IR Inten    --     23.1820                23.0199                 1.6463

                     97                     98                     99
                      A                      A                      A
 Frequencies --   1144.0316              1144.0322              1144.7918
 Red. masses --      3.5103                 3.5123                 4.4284
 Frc consts  --      2.7069                 2.7084                 3.4194
 IR Inten    --    113.8284               113.6997                 0.0969

                    100                    101                    102
                      A                      A                      A
 Frequencies --   1194.1837              1194.2046              1194.2092
 Red. masses --      1.1213                 1.1214                 1.1214
 Frc consts  --      0.9421                 0.9423                 0.9422
 IR Inten    --      0.1140                 0.1313                 0.2282

                    103                    104                    105
                      A                      A                      A
 Frequencies --   1198.0325              1198.0591              1215.4816
 Red. masses --      3.9635                 3.9718                 1.1534
 Frc consts  --      3.3517                 3.3589                 1.0040
 IR Inten    --    202.7602               202.8338                 0.0043

                    106                    107                    108
                      A                      A                      A
 Frequencies --   1216.6875              1216.7161              1232.0487
 Red. masses --      1.2323                 1.2316                 8.7309
 Frc consts  --      1.0748                 1.0742                 7.8085
 IR Inten    --      5.8400                 5.7654                 0.0001

                    109                    110                    111
                      A                      A                      A
 Frequencies --   1272.9326              1334.3663              1334.3904
 Red. masses --     11.9725                 5.2568                 5.2641
 Frc consts  --     11.4300                 5.5147                 5.5226
 IR Inten    --      0.1048                 2.1075                 2.1447

                    112                    113                    114
                      A                      A                      A
 Frequencies --   1334.5167              1362.7632              1362.8675
 Red. masses --      5.2735                 1.3891                 1.3900
 Frc consts  --      5.5335                 1.5200                 1.5212
 IR Inten    --      2.3926                 2.4451                 2.7386

                    115                    116                    117
                      A                      A                      A
 Frequencies --   1362.8686              1366.1854              1366.1895
 Red. masses --      1.3895                 8.2025                 8.1940
 Frc consts  --      1.5206                 9.0202                 9.0109
 IR Inten    --      2.3685               763.7738               763.3208

                    118                    119                    120
                      A                      A                      A
 Frequencies --   1378.2622              1421.3534              1421.4781
 Red. masses --      8.0749                11.9686                11.9690
 Frc consts  --      9.0376                14.2462                14.2491
 IR Inten    --      0.0001                13.2621                13.1467

                    121                    122                    123
                      A                      A                      A
 Frequencies --   1463.0268              1487.1721              1487.1784
 Red. masses --     11.0224                 2.2702                 2.2706
 Frc consts  --     13.9005                 2.9583                 2.9588
 IR Inten    --      0.0000                 5.0415                 5.7143

                    124                    125                    126
                      A                      A                      A
 Frequencies --   1487.2621              1529.2429              1529.2862
 Red. masses --      2.2717                 2.2306                 2.2302
 Frc consts  --      2.9606                 3.0734                 3.0731
 IR Inten    --      5.4255               112.7012               112.7275

                    127                    128                    129
                      A                      A                      A
 Frequencies --   1530.7005              1629.5512              1629.5830
 Red. masses --      2.2772                 5.8405                 5.8417
 Frc consts  --      3.1436                 9.1377                 9.1400
 IR Inten    --      0.0465                 4.8944                 0.4164

                    130                    131                    132
                      A                      A                      A
 Frequencies --   1629.5852              1639.7874              1639.7946
 Red. masses --      5.8398                 5.5210                 5.5197
 Frc consts  --      9.1371                 8.7467                 8.7447
 IR Inten    --      0.4058                29.6345                29.6729

                    133                    134                    135
                      A                      A                      A
 Frequencies --   1640.9685              1654.8278              1654.8319
 Red. masses --      5.3795                11.3710                11.3695
 Frc consts  --      8.5348                18.3465                18.3442
 IR Inten    --      0.0008                28.4729                28.4290

                    136                    137                    138
                      A                      A                      A
 Frequencies --   1778.3149              1798.5638              1798.6277
 Red. masses --     13.0655                13.0499                13.0499
 Frc consts  --     24.3441                24.8720                24.8736
 IR Inten    --      5.7692               575.5531               574.1907

                    139                    140                    141
                      A                      A                      A
 Frequencies --   1838.0179              1838.0721              1853.0481
 Red. masses --     13.0639                13.0639                13.0736
 Frc consts  --     26.0030                26.0045                26.4495
 IR Inten    --    175.2709               173.7247                 0.0060

                    142                    143                    144
                      A                      A                      A
 Frequencies --   3167.8100              3167.8366              3167.8435
 Red. masses --      1.0863                 1.0863                 1.0863
 Frc consts  --      6.4226                 6.4227                 6.4227
 IR Inten    --      0.0148                 0.0184                 0.0052

                    145                    146                    147
                      A                      A                      A
 Frequencies --   3179.4364              3179.4607              3179.4623
 Red. masses --      1.0903                 1.0903                 1.0903
 Frc consts  --      6.4938                 6.4938                 6.4939
 IR Inten    --      9.8308                11.0378                 7.8993

                    148                    149                    150
                      A                      A                      A
 Frequencies --   3190.4083              3190.4298              3190.4812
 Red. masses --      1.0953                 1.0953                 1.0952
 Frc consts  --      6.5684                 6.5685                 6.5686
 IR Inten    --     34.0057                35.1661                 1.2855

                    151                    152                    153
                      A                      A                      A
 Frequencies --   3210.7976              3210.8036              3210.8081
 Red. masses --      1.0935                 1.0935                 1.0935
 Frc consts  --      6.6420                 6.6421                 6.6421
 IR Inten    --      2.4433                 2.3049                 2.1146

                    154                    155                    156
                      A                      A                      A
 Frequencies --   3211.5950              3211.6026              3211.6079
 Red. masses --      1.0950                 1.0950                 1.0950
 Frc consts  --      6.6544                 6.6544                 6.6545
 IR Inten    --      0.0256                 0.0837                 0.0866

 - Thermochemistry -
 -------------------
 Temperature   298.150 Kelvin.  Pressure   1.00000 Atm.
 Atom     1 has atomic number  6 and mass  12.00000

 Molecular mass:   513.09609 amu.
 Principal axes and moments of inertia in atomic units:
                           1         2         3
     Eigenvalues --  ******************************
           X            0.99998  -0.00677  -0.00059
           Y            0.00677   0.99998   0.00003
           Z            0.00059  -0.00004   1.00000
 This molecule is an asymmetric top.
 Rotational symmetry number  1.
 Warning -- assumption of classical behavior for rotation
           may cause significant error
 Rotational temperatures (Kelvin)      0.00393     0.00393     0.00201
 Rotational constants (GHZ):           0.08192     0.08191     0.04185
 Zero-point vibrational energy    1011319.8 (Joules/Mol)
                                  241.71124 (Kcal/Mol)
 Warning -- explicit consideration of  45 degrees of freedom as
           vibrations may cause significant error
 Vibrational temperatures:     29.48    39.24    40.09    53.46    69.02
          (Kelvin)             69.09    72.25    72.50    96.30    96.54
                              101.58   127.47   189.83   191.38   191.49
                              218.16   244.77   244.77   281.78   359.44
                              359.47   384.32   384.36   395.64   421.34
                              421.37   435.76   455.27   455.29   481.00
                              577.55   583.46   583.49   597.33   597.43
                              597.45   705.80   705.83   738.19   738.25
                              743.42   747.09   747.15   856.43   869.16
                              903.78   904.31   904.33   907.07   908.15
                              908.15   999.03  1004.16  1004.18  1014.39
                             1020.92  1020.96  1054.28  1076.09  1076.09
                             1093.89  1093.90  1104.68  1106.53  1127.15
                             1127.15  1137.21  1137.22  1180.28  1212.87
                             1212.88  1213.57  1279.96  1296.88  1296.93
                             1334.11  1334.12  1337.22  1413.53  1413.53
                             1413.56  1444.39  1444.46  1444.47  1465.57
                             1465.57  1465.76  1501.91  1501.91  1511.78
                             1526.38  1526.39  1583.89  1588.58  1588.62
                             1641.66  1646.01  1646.01  1647.10  1718.16
                             1718.19  1718.20  1723.70  1723.74  1748.81
                             1750.54  1750.58  1772.64  1831.47  1919.86
                             1919.89  1920.07  1960.71  1960.86  1960.86
                             1965.64  1965.64  1983.01  2045.01  2045.19
                             2104.97  2139.71  2139.72  2139.84  2200.24
                             2200.30  2202.34  2344.56  2344.61  2344.61
                             2359.29  2359.30  2360.99  2380.93  2380.93
                             2558.60  2587.73  2587.82  2644.50  2644.58
                             2666.12  4557.77  4557.81  4557.82  4574.50
                             4574.53  4574.54  4590.29  4590.32  4590.39
                             4619.62  4619.63  4619.64  4620.77  4620.78
                             4620.79

 Zero-point correction=                           0.385191 (Hartree/Particle)
 Thermal correction to Energy=                    0.414994
 Thermal correction to Enthalpy=                  0.415938
 Thermal correction to Gibbs Free Energy=         0.321336
 Sum of electronic and zero-point Energies=          -1768.026566
 Sum of electronic and thermal Energies=             -1767.996763
 Sum of electronic and thermal Enthalpies=           -1767.995819
 Sum of electronic and thermal Free Energies=        -1768.090422

                     E (Thermal)             CV                S
                      KCal/Mol        Cal/Mol-Kelvin    Cal/Mol-Kelvin
 Total                  260.413            115.888            199.108
 Electronic               0.000              0.000              0.000
 Translational            0.889              2.981             44.592
 Rotational               0.889              2.981             38.279
 Vibrational            258.635            109.926            116.237
 Vibration     1          0.593              1.986              6.586
 Vibration     2          0.593              1.984              6.019
 Vibration     3          0.593              1.984              5.976
 Vibration     4          0.594              1.982              5.405
 Vibration     5          0.595              1.978              4.899
 Vibration     6          0.595              1.978              4.897
 Vibration     7          0.595              1.978              4.809
 Vibration     8          0.595              1.977              4.802
 Vibration     9          0.598              1.970              4.242
 Vibration    10          0.598              1.970              4.237
 Vibration    11          0.598              1.968              4.136
 Vibration    12          0.601              1.957              3.691
 Vibration    13          0.612              1.921              2.918
 Vibration    14          0.613              1.920              2.902
 Vibration    15          0.613              1.920              2.901
 Vibration    16          0.619              1.901              2.652
 Vibration    17          0.625              1.879              2.434
 Vibration    18          0.625              1.879              2.434
 Vibration    19          0.636              1.846              2.172
 Vibration    20          0.663              1.763              1.732
 Vibration    21          0.663              1.763              1.732
 Vibration    22          0.672              1.733              1.615
 Vibration    23          0.672              1.733              1.615
 Vibration    24          0.677              1.720              1.565
 Vibration    25          0.688              1.687              1.457
 Vibration    26          0.688              1.687              1.457
 Vibration    27          0.694              1.668              1.401
 Vibration    28          0.703              1.642              1.328
 Vibration    29          0.703              1.642              1.328
 Vibration    30          0.716              1.607              1.239
 Vibration    31          0.767              1.467              0.957
 Vibration    32          0.771              1.458              0.943
 Vibration    33          0.771              1.458              0.942
 Vibration    34          0.779              1.437              0.909
 Vibration    35          0.779              1.437              0.908
 Vibration    36          0.779              1.437              0.908
 Vibration    37          0.846              1.271              0.682
 Vibration    38          0.846              1.271              0.682
 Vibration    39          0.868              1.221              0.626
 Vibration    40          0.868              1.221              0.626
 Vibration    41          0.872              1.213              0.618
 Vibration    42          0.874              1.207              0.612
 Vibration    43          0.874              1.207              0.612
 Vibration    44          0.953              1.042              0.458
 Vibration    45          0.963              1.023              0.443

 Optimization completed.
    -- Stationary point found.
 Normal termination of Gaussian 16 at Wed Jan 13 10:26:09 2021.
