 Gaussian 16, Revision C.01,
 Gaussian 16:  ES64L-G16RevC.01  3-Jul-2019

 ----------------------------------------------------------------------
 #P B3LYP/6-311++G(d,p) EmpiricalDispersion=GD3 freq(noraman) SCF=YQC N
 oSymm
 ----------------------------------------------------------------------

 --------------------------------------------
 Restart from 2_Phenyl_PrimaryAmine_Imide.log
 --------------------------------------------
 Symbolic Z-matrix:
 Charge =  0 Multiplicity = 1

                          Input orientation:
 ---------------------------------------------------------------------
 Center     Atomic      Atomic             Coordinates (Angstroms)
 Number     Number       Type             X           Y           Z
 ---------------------------------------------------------------------
      1          6           0        0.001528   -1.392162   -0.004569
      2          6           0       -0.001528    1.392162    0.004569
      3          6           0       -1.130712   -0.697156    0.423352
      4          6           0        1.130712    0.697156   -0.423352
      5          6           0       -1.132225    0.691853    0.427966
      6          6           0        1.132225   -0.691853   -0.427966
      7          1           0        2.013162   -1.229141   -0.749364
      8          1           0       -2.013162    1.229141    0.749364
      9          1           0        2.010487    1.238518   -0.741111
     10          1           0       -2.010487   -1.238518    0.741111
     11          6           0       -0.639240   -5.027437   -0.278709
     12          6           0       -1.310357   -6.206523   -0.558163
     13          1           0       -2.313107   -6.191541   -0.967410
     14          6           0       -0.640596   -7.404924   -0.289292
     15          1           0       -1.131175   -8.349659   -0.493264
     16          6           0        0.654686   -7.405509    0.240545
     17          1           0        1.146928   -8.350687    0.438366
     18          6           0        1.322323   -6.207706    0.517245
     19          1           0        2.325040   -6.193621    0.926605
     20          6           0        0.649126   -5.028010    0.245469
     21          6           0        1.088076   -3.617436    0.430195
     22          6           0       -1.080707   -3.616467   -0.454170
     23          7           0        0.002954   -2.817035   -0.009349
     24          8           0       -2.132168   -3.207690   -0.880988
     25          8           0        2.138720   -3.209655    0.859979
     26          6           0        0.639240    5.027437    0.278709
     27          6           0        1.310357    6.206523    0.558163
     28          1           0        2.313107    6.191541    0.967410
     29          6           0        0.640596    7.404924    0.289292
     30          1           0        1.131175    8.349659    0.493264
     31          6           0       -0.654686    7.405509   -0.240545
     32          1           0       -1.146928    8.350687   -0.438366
     33          6           0       -1.322323    6.207706   -0.517245
     34          1           0       -2.325040    6.193621   -0.926605
     35          6           0       -0.649126    5.028010   -0.245469
     36          6           0       -1.088076    3.617436   -0.430195
     37          6           0        1.080707    3.616467    0.454170
     38          7           0       -0.002954    2.817035    0.009349
     39          8           0        2.132168    3.207690    0.880988
     40          8           0       -2.138720    3.209655   -0.859979
 ---------------------------------------------------------------------

 SCF Done:  E(RB3LYP) =  -1256.40347126     a.u. after    8 cycles
 SCF Done:  E(RB3LYP) =  -1256.40349080     A.U. after   10 cycles

 Alpha  occ. eigenvalues --  -19.13257 -19.13257 -19.13257 -19.13256 -14.38237
 Alpha  occ. eigenvalues --  -14.38237 -10.30975 -10.30975 -10.30975 -10.30975
 Alpha  occ. eigenvalues --  -10.23207 -10.23206 -10.21458 -10.21458 -10.21403
 Alpha  occ. eigenvalues --  -10.21403 -10.21260 -10.21260 -10.21257 -10.21257
 Alpha  occ. eigenvalues --  -10.21146 -10.21146 -10.21096 -10.21096 -10.18814
 Alpha  occ. eigenvalues --  -10.18813 -10.18757 -10.18756  -1.09051  -1.09041
 Alpha  occ. eigenvalues --   -1.07334  -1.07334  -0.98198  -0.98027  -0.90398
 Alpha  occ. eigenvalues --   -0.89951  -0.86967  -0.82311  -0.80031  -0.78925
 Alpha  occ. eigenvalues --   -0.78925  -0.76681  -0.75324  -0.69627  -0.68696
 Alpha  occ. eigenvalues --   -0.68500  -0.66008  -0.64675  -0.62701  -0.62232
 Alpha  occ. eigenvalues --   -0.60910  -0.59372  -0.58195  -0.54631  -0.53612
 Alpha  occ. eigenvalues --   -0.53494  -0.52843  -0.50346  -0.50214  -0.50125
 Alpha  occ. eigenvalues --   -0.48574  -0.47966  -0.47710  -0.47197  -0.47077
 Alpha  occ. eigenvalues --   -0.46226  -0.46005  -0.45882  -0.45429  -0.45412
 Alpha  occ. eigenvalues --   -0.44842  -0.43480  -0.42130  -0.41492  -0.40768
 Alpha  occ. eigenvalues --   -0.40439  -0.40187  -0.39791  -0.39738  -0.38909
 Alpha  occ. eigenvalues --   -0.38799  -0.38375  -0.37434  -0.32929  -0.30904
 Alpha  occ. eigenvalues --   -0.30696  -0.30677  -0.29487  -0.29171  -0.29170
 Alpha  occ. eigenvalues --   -0.28808  -0.28531  -0.28369  -0.26637  -0.24135
 Alpha virt. eigenvalues --   -0.09760  -0.09760  -0.06717  -0.05910  -0.02301
 Alpha virt. eigenvalues --   -0.02280  -0.01401  -0.01338   0.00121   0.00701
 Alpha virt. eigenvalues --    0.00714   0.00741   0.00764   0.01143   0.01877

 Mulliken charges:
               1
     1  C   -0.629623
     2  C   -0.629623
     3  C    0.118245
     4  C    0.118245
     5  C    0.118079
     6  C    0.118079
     7  H    0.217367
     8  H    0.217367
     9  H    0.217362
    10  H    0.217362
    11  C    0.616743
    12  C   -0.459992
    13  H    0.197189
    14  C   -0.354739
    15  H    0.181870
    16  C   -0.354710
    17  H    0.181871
    18  C   -0.459984
    19  H    0.197188
    20  C    0.616824
    21  C   -0.125655
    22  C   -0.125726
    23  N    0.358214
    24  O   -0.255248
    25  O   -0.255275
    26  C    0.616744
    27  C   -0.459992
    28  H    0.197189
    29  C   -0.354739
    30  H    0.181870
    31  C   -0.354710
    32  H    0.181871
    33  C   -0.459984
    34  H    0.197188
    35  C    0.616824
    36  C   -0.125655
    37  C   -0.125726
    38  N    0.358214
    39  O   -0.255248
    40  O   -0.255275
 Sum of Mulliken charges =   0.00000

 Dipole moment (field-independent basis, Debye):
    X=              0.0000    Y=              0.0000    Z=             -0.0000  Tot=              0.0000
 Quadrupole moment (field-independent basis, Debye-Ang):
   XX=           -169.6897   YY=            -78.9758   ZZ=           -164.4736
   XY=             -0.0521   XZ=             -9.3582   YZ=              0.2741

  Exact polarizability:     263.617      -0.319     474.043      34.843       1.079     154.512
 Approx polarizability:     524.927      -0.326     584.580      80.332       1.113     266.031

                      1                      2                      3
                      A                      A                      A
 Frequencies --     20.0806                26.9918                36.9294
 Red. masses --      6.4437                 8.0236                 6.6681
 Frc consts  --      0.0015                 0.0034                 0.0054
 IR Inten    --      2.0395                 0.3329                 2.2512

                      4                      5                      6
                      A                      A                      A
 Frequencies --     45.9843                75.0363                98.1925
 Red. masses --      7.7206                 3.9846                 8.1441
 Frc consts  --      0.0096                 0.0132                 0.0463
 IR Inten    --      0.0000                 0.0000                 0.0000

                      7                      8                      9
                      A                      A                      A
 Frequencies --    127.0827               135.5685               135.7359
 Red. masses --      9.2385                 5.1345                 5.2078
 Frc consts  --      0.0879                 0.0556                 0.0565
 IR Inten    --      8.1855                 0.2991                 0.0000

                     10                     11                     12
                      A                      A                      A
 Frequencies --    162.6024               162.8615               168.2910
 Red. masses --      9.7556                 8.7917                 7.4992
 Frc consts  --      0.1520                 0.1374                 0.1251
 IR Inten    --      0.0000                 0.0000                 2.3059

                     13                     14                     15
                      A                      A                      A
 Frequencies --    196.4572               221.8166               259.6998
 Red. masses --      6.2773                 6.2883                 7.4043
 Frc consts  --      0.1427                 0.1823                 0.2942
 IR Inten    --      0.0000                 0.4231                 0.0000

                     16                     17                     18
                      A                      A                      A
 Frequencies --    267.7997               344.7120               353.9269
 Red. masses --      8.5626                 8.9435                11.2126
 Frc consts  --      0.3618                 0.6261                 0.8275
 IR Inten    --      3.5716                 0.3205                47.7567

                     19                     20                     21
                      A                      A                      A
 Frequencies --    365.1700               378.6370               379.8911
 Red. masses --     10.7354                 5.8810                 6.9982
 Frc consts  --      0.8434                 0.4968                 0.5951
 IR Inten    --      0.0000                 0.0000                 1.6038

                     22                     23                     24
                      A                      A                      A
 Frequencies --    409.9707               416.2784               422.4217
 Red. masses --      3.1555                 3.1829                 3.0154
 Frc consts  --      0.3125                 0.3250                 0.3170
 IR Inten    --      0.0000                 2.3946                 4.0028

                     25                     26                     27
                      A                      A                      A
 Frequencies --    460.3698               463.2338               463.4878
 Red. masses --      5.6440                 4.8374                 4.8350
 Frc consts  --      0.7048                 0.6116                 0.6120
 IR Inten    --      0.0000                 0.0000                 0.0040

                     28                     29                     30
                      A                      A                      A
 Frequencies --    538.2468               538.7043               540.8565
 Red. masses --      5.4232                 7.4719                 3.0117
 Frc consts  --      0.9257                 1.2776                 0.5191
 IR Inten    --     10.9130                 0.0000                32.0892

                     31                     32                     33
                      A                      A                      A
 Frequencies --    571.9108               587.1975               638.2137
 Red. masses --      9.7908                10.8936                11.0623
 Frc consts  --      1.8868                 2.2130                 2.6548
 IR Inten    --      0.0000                 5.1159                 0.0000

                     34                     35                     36
                      A                      A                      A
 Frequencies --    647.1464               677.3470               678.1083
 Red. masses --      7.0905                 4.9240                 4.9234
 Frc consts  --      1.7496                 1.3311                 1.3339
 IR Inten    --      0.0000                 1.8215                 0.0000

                     37                     38                     39
                      A                      A                      A
 Frequencies --    695.8782               711.1309               718.0692
 Red. masses --      7.7541                 5.4139                 5.7735
 Frc consts  --      2.2123                 1.6131                 1.7540
 IR Inten    --     46.3405                 0.0000                14.2250

                     40                     41                     42
                      A                      A                      A
 Frequencies --    726.7174               728.4621               731.8696
 Red. masses --      2.5484                 2.6074                 6.5857
 Frc consts  --      0.7930                 0.8152                 2.0784
 IR Inten    --    134.4727                 0.0000                 0.0000

                     43                     44                     45
                      A                      A                      A
 Frequencies --    745.3410               794.7108               795.7542
 Red. masses --      4.2202                 6.2771                 6.2222
 Frc consts  --      1.3813                 2.3358                 2.3214
 IR Inten    --      0.0000                 5.2079                 0.0000

                     46                     47                     48
                      A                      A                      A
 Frequencies --    799.9947               801.1820               828.3813
 Red. masses --      1.8570                 1.9408                 1.2535
 Frc consts  --      0.7002                 0.7340                 0.5068
 IR Inten    --     37.6119                 0.0000                 0.0000

                     49                     50                     51
                      A                      A                      A
 Frequencies --    842.9862               844.1728               877.4376
 Red. masses --      1.8213                 6.6599                 6.7738
 Frc consts  --      0.7625                 2.7963                 3.0727
 IR Inten    --     38.6716                64.2154                 0.0000

                     52                     53                     54
                      A                      A                      A
 Frequencies --    892.6237               895.1358               907.4736
 Red. masses --      7.5168                 6.2824                 1.3596
 Frc consts  --      3.5288                 2.9659                 0.6597
 IR Inten    --      0.0000                59.4479                 0.4274

                     55                     56                     57
                      A                      A                      A
 Frequencies --    907.4873               960.9406               974.6618
 Red. masses --      1.3612                 1.3645                 1.3669
 Frc consts  --      0.6604                 0.7424                 0.7650
 IR Inten    --      0.0000                 0.0000                 0.0716

                     58                     59                     60
                      A                      A                      A
 Frequencies --    983.4373               983.4923              1012.6888
 Red. masses --      1.3983                 1.3984                 1.3221
 Frc consts  --      0.7968                 0.7969                 0.7988
 IR Inten    --      0.0000                 2.1253                 0.0315

                     61                     62                     63
                      A                      A                      A
 Frequencies --   1012.8692              1029.7163              1029.8368
 Red. masses --      1.3231                 2.3070                 2.2520
 Frc consts  --      0.7998                 1.4412                 1.4072
 IR Inten    --      0.0000                 3.6251                 0.0000

                     64                     65                     66
                      A                      A                      A
 Frequencies --   1041.5229              1083.4022              1090.6902
 Red. masses --      2.7921                 5.1971                 3.6771
 Frc consts  --      1.7845                 3.5941                 2.5773
 IR Inten    --      5.1216               195.4424                 0.0000

                     67                     68                     69
                      A                      A                      A
 Frequencies --   1108.3550              1114.6795              1123.6731
 Red. masses --      2.9479                 3.9221                 4.0583
 Frc consts  --      2.1336                 2.8713                 3.0191
 IR Inten    --     17.2541                 0.0000                 0.0000

                     70                     71                     72
                      A                      A                      A
 Frequencies --   1139.0953              1169.1145              1190.2866
 Red. masses --      2.6667                 1.3790                 1.1760
 Frc consts  --      2.0386                 1.1105                 0.9817
 IR Inten    --      7.0704                34.0852                 0.0000

                     73                     74                     75
                      A                      A                      A
 Frequencies --   1190.8114              1193.0312              1193.0317
 Red. masses --      1.1876                 2.2021                 2.1976
 Frc consts  --      0.9922                 1.8467                 1.8429
 IR Inten    --     19.1644                 0.0000                 4.0889

                     76                     77                     78
                      A                      A                      A
 Frequencies --   1224.5149              1241.3375              1246.4627
 Red. masses --      1.3052                 3.7286                 3.4167
 Frc consts  --      1.1531                 3.3852                 3.1277
 IR Inten    --      0.0000               122.0888                 0.0000

                     79                     80                     81
                      A                      A                      A
 Frequencies --   1307.0053              1307.0079              1333.1078
 Red. masses --      1.5631                 1.5632                11.4683
 Frc consts  --      1.5732                 1.5733                12.0083
 IR Inten    --      0.7790                 0.0000                 7.1063

                     82                     83                     84
                      A                      A                      A
 Frequencies --   1353.4619              1367.0215              1386.1153
 Red. masses --      1.3046                 6.3561                 6.5865
 Frc consts  --      1.4080                 6.9983                 7.4560
 IR Inten    --      0.0000              1258.5046                 0.0000

                     85                     86                     87
                      A                      A                      A
 Frequencies --   1387.8793              1395.7507              1458.1229
 Red. masses --      5.6740                 9.2614                 2.9155
 Frc consts  --      6.4394                10.6302                 3.6521
 IR Inten    --    280.4508                 0.0000                 6.3641

                     88                     89                     90
                      A                      A                      A
 Frequencies --   1495.3881              1495.4106              1495.6933
 Red. masses --      2.4098                 2.4107                 2.5665
 Frc consts  --      3.1749                 3.1763                 3.3827
 IR Inten    --      0.0000                12.1273                 1.8899

                     91                     92                     93
                      A                      A                      A
 Frequencies --   1495.8177              1550.5859              1621.8525
 Red. masses --      2.5765                 2.4553                 6.9878
 Frc consts  --      3.3965                 3.4782                10.8296
 IR Inten    --      0.0000               280.9243                 0.0000

                     94                     95                     96
                      A                      A                      A
 Frequencies --   1645.8872              1645.9015              1646.1420
 Red. masses --      6.8611                 6.8604                 6.8761
 Frc consts  --     10.9508                10.9498                10.9781
 IR Inten    --      0.0000                30.5865                 0.0000

                     97                     98                     99
                      A                      A                      A
 Frequencies --   1647.7939              1654.1253              1775.1176
 Red. masses --      7.3439                 5.8839                12.9427
 Frc consts  --     11.7484                 9.4853                24.0286
 IR Inten    --      3.5684                 0.0000                 0.0000

                    100                    101                    102
                      A                      A                      A
 Frequencies --   1778.8426              1827.5908              1831.0711
 Red. masses --     12.8515                13.0055                12.9831
 Frc consts  --     23.9596                25.5938                25.6472
 IR Inten    --   1180.9426                66.9726                 0.0000

                    103                    104                    105
                      A                      A                      A
 Frequencies --   3171.1195              3171.1198              3184.6509
 Red. masses --      1.0873                 1.0873                 1.0908
 Frc consts  --      6.4418                 6.4418                 6.5183
 IR Inten    --      0.0000                 3.3203                12.2009

                    106                    107                    108
                      A                      A                      A
 Frequencies --   3184.6580              3196.7113              3196.7123
 Red. masses --      1.0908                 1.0940                 1.0940
 Frc consts  --      6.5183                 6.5865                 6.5865
 IR Inten    --      0.0000                 0.0000                 4.6692

                    109                    110                    111
                      A                      A                      A
 Frequencies --   3200.1402              3200.1718              3209.1690
 Red. masses --      1.0966                 1.0966                 1.0893
 Frc consts  --      6.6168                 6.6170                 6.6096
 IR Inten    --     23.2138                 0.0000                 4.6787

                    112                    113                    114
                      A                      A                      A
 Frequencies --   3210.6915              3223.2096              3224.2248
 Red. masses --      1.0891                 1.0949                 1.0958
 Frc consts  --      6.6148                 6.7023                 6.7116
 IR Inten    --      0.0000                 1.0784                 0.0000

 - Thermochemistry -
 -------------------
 Temperature   298.150 Kelvin.  Pressure   1.00000 Atm.
 Atom     1 has atomic number  6 and mass  12.00000

 Molecular mass:   368.07971 amu.
 Principal axes and moments of inertia in atomic units:
                           1         2         3
     Eigenvalues --  2392.38463********************
           X           -0.00098   0.95152  -0.30759
           Y            0.99999  -0.00008  -0.00343
           Z            0.00329   0.30759   0.95151
 This molecule is an asymmetric top.
 Rotational symmetry number  1.
 Warning -- assumption of classical behavior for rotation
           may cause significant error
 Rotational temperatures (Kelvin)      0.03620     0.00313     0.00291
 Rotational constants (GHZ):           0.75437     0.06519     0.06054
 Zero-point vibrational energy     764860.5 (Joules/Mol)
                                  182.80605 (Kcal/Mol)
 Warning -- explicit consideration of  32 degrees of freedom as
           vibrations may cause significant error
 Vibrational temperatures:     28.89    38.84    53.13    66.16   107.96
          (Kelvin)            141.28   182.84   195.05   195.29   233.95
                              234.32   242.13   282.66   319.14   373.65
                              385.30   495.96   509.22   525.40   544.77
                              546.58   589.86   598.93   607.77   662.37
                              666.49   666.86   774.42   775.08   778.17
                              822.85   844.85   918.25   931.10   974.55
                              975.65  1001.21  1023.16  1033.14  1045.58
                             1048.09  1053.00  1072.38  1143.41  1144.91
                             1151.01  1152.72  1191.86  1212.87  1214.58
                             1262.44  1284.29  1287.90  1305.65  1305.67
                             1382.58  1402.32  1414.95  1415.03  1457.03
                             1457.29  1481.53  1481.71  1498.52  1558.77
                             1569.26  1594.68  1603.78  1616.72  1638.90
                             1682.10  1712.56  1713.31  1716.51  1716.51
                             1761.80  1786.01  1793.38  1880.49  1880.49
                             1918.04  1947.33  1966.84  1994.31  1996.85
                             2008.17  2097.91  2151.53  2151.56  2151.97
                             2152.15  2230.95  2333.48  2368.06  2368.09
                             2368.43  2370.81  2379.92  2554.00  2559.36
                             2629.50  2634.50  4562.53  4562.53  4582.00
                             4582.01  4599.35  4599.36  4604.29  4604.33
                             4617.28  4619.47  4637.48  4638.94

 Zero-point correction=                           0.291320 (Hartree/Particle)
 Thermal correction to Energy=                    0.312144
 Thermal correction to Enthalpy=                  0.313088
 Thermal correction to Gibbs Free Energy=         0.239829
 Sum of electronic and zero-point Energies=          -1256.112171
 Sum of electronic and thermal Energies=             -1256.091347
 Sum of electronic and thermal Enthalpies=           -1256.090403
 Sum of electronic and thermal Free Energies=        -1256.163662

                     E (Thermal)             CV                S
                      KCal/Mol        Cal/Mol-Kelvin    Cal/Mol-Kelvin
 Total                  195.873             82.518            154.187
 Electronic               0.000              0.000              0.000
 Translational            0.889              2.981             43.602
 Rotational               0.889              2.981             35.933
 Vibrational            194.096             76.556             74.651
 Vibration     1          0.593              1.986              6.626
 Vibration     2          0.593              1.984              6.039
 Vibration     3          0.594              1.982              5.417
 Vibration     4          0.595              1.979              4.983
 Vibration     5          0.599              1.966              4.017
 Vibration     6          0.604              1.950              3.490
 Vibration     7          0.611              1.926              2.990
 Vibration     8          0.613              1.918              2.865
 Vibration     9          0.614              1.918              2.863
 Vibration    10          0.623              1.888              2.519
 Vibration    11          0.623              1.888              2.516
 Vibration    12          0.625              1.881              2.454
 Vibration    13          0.636              1.845              2.166
 Vibration    14          0.648              1.808              1.944
 Vibration    15          0.668              1.746              1.664
 Vibration    16          0.673              1.732              1.610
 Vibration    17          0.723              1.586              1.190
 Vibration    18          0.730              1.567              1.149
 Vibration    19          0.738              1.544              1.100
 Vibration    20          0.749              1.516              1.045
 Vibration    21          0.750              1.513              1.040
 Vibration    22          0.774              1.449              0.927
 Vibration    23          0.779              1.435              0.905
 Vibration    24          0.785              1.421              0.884
 Vibration    25          0.818              1.338              0.765
 Vibration    26          0.821              1.332              0.757
 Vibration    27          0.821              1.331              0.756
 Vibration    28          0.893              1.165              0.569
 Vibration    29          0.894              1.164              0.568
 Vibration    30          0.896              1.160              0.563
 Vibration    31          0.928              1.092              0.501
 Vibration    32          0.944              1.059              0.472

 Optimization completed.
    -- Stationary point found.
 Normal termination of Gaussian 16 at Tue Jan 12 08:38:57 2021.
