 Gaussian 16, Revision C.01,
 Gaussian 16:  ES64L-G16RevC.01  3-Jul-2019

 ----------------------------------------------------------------------
 #P B3LYP/6-311++G(d,p) EmpiricalDispersion=GD3 freq(noraman) SCF=YQC N
 oSymm
 ----------------------------------------------------------------------

 --------------------------------------------
 Restart from 3_Phenyl_PrimaryAmine_Imide.log
 --------------------------------------------
 Symbolic Z-matrix:
 Charge =  0 Multiplicity = 1

                          Input orientation:
 ---------------------------------------------------------------------
 Center     Atomic      Atomic             Coordinates (Angstroms)
 Number     Number       Type             X           Y           Z
 ---------------------------------------------------------------------
      1          6           0        1.198594    0.693543   -0.013545
      2          6           0        1.213103   -0.699257   -0.013530
      3          6           0        0.000959   -1.385415   -0.013496
      4          6           0       -1.212500   -0.701587   -0.013506
      5          6           0       -1.200664    0.691242   -0.013551
      6          6           0       -0.001715    1.400193   -0.013582
      7          1           0       -2.145523   -1.241466   -0.013448
      8          1           0       -0.002759    2.478151   -0.013644
      9          1           0        2.147171   -1.237328   -0.013608
     10          6           0        4.597827    2.072675   -0.488268
     11          6           0        5.884104    2.204401   -0.984914
     12          1           0        6.267779    1.512037   -1.724235
     13          6           0        6.656848    3.261171   -0.492043
     14          1           0        7.668974    3.398665   -0.854668
     15          6           0        6.145149    4.145766    0.464059
     16          1           0        6.768910    4.954647    0.826595
     17          6           0        4.843883    4.002694    0.957058
     18          1           0        4.435041    4.680459    1.696419
     19          6           0        4.088418    2.953306    0.460483
     20          6           0        2.693576    2.547969    0.785881
     21          6           0        3.551112    1.065521   -0.813520
     22          7           0        2.430932    1.406615   -0.013652
     23          8           0        3.611275    0.142396   -1.587332
     24          8           0        1.923509    3.060127    1.560002
     25          6           0       -4.094596    2.945621   -0.488035
     26          6           0       -4.851899    3.993626   -0.984729
     27          1           0       -4.444220    4.672068   -1.724110
     28          6           0       -6.153453    4.134406   -0.491826
     29          1           0       -6.778636    4.942144   -0.854461
     30          6           0       -6.663629    3.248970    0.464311
     31          1           0       -7.676022    3.384683    0.826862
     32          6           0       -5.889026    2.193626    0.957318
     33          1           0       -6.271508    1.500638    1.696672
     34          6           0       -4.602488    2.064154    0.460753
     35          6           0       -3.553995    1.058896    0.786145
     36          6           0       -2.699011    2.542756   -0.813313
     37          7           0       -2.434335    1.402004   -0.013596
     38          8           0       -1.929757    3.056300   -1.587321
     39          8           0       -3.612521    0.135819    1.560142
     40          6           0       -0.503951   -5.018852   -0.488274
     41          6           0       -1.032578   -6.198724   -0.985249
     42          1           0       -1.823734   -6.184911   -1.724878
     43          6           0       -0.503737   -7.396268   -0.492267
     44          1           0       -0.890423   -8.341582   -0.855110
     45          6           0        0.517866   -7.395322    0.464184
     46          1           0        0.906548   -8.339919    0.826765
     47          6           0        1.044183   -6.196801    0.957493
     48          1           0        1.835309   -6.181524    1.697126
     49          6           0        0.513053   -5.017910    0.460859
     50          6           0        0.859042   -3.607234    0.786528
     51          6           0       -0.852943   -3.608819   -0.813523
     52          7           0        0.002298   -2.809192   -0.013486
     53          8           0       -1.682017   -3.199421   -1.587856
     54          8           0        1.687454   -3.196309    1.560763
 ---------------------------------------------------------------------

 SCF Done:  E(RB3LYP) =  -1768.44734930     a.u. after    8 cycles
 SCF Done:  E(RB3LYP) =  -1768.44737666     A.U. after   10 cycles

 Alpha  occ. eigenvalues --  -19.13151 -19.13151 -19.13150 -19.13150 -19.13150
 Alpha  occ. eigenvalues --  -19.13149 -14.38139 -14.38139 -14.38138 -10.30872
 Alpha  occ. eigenvalues --  -10.30872 -10.30872 -10.30872 -10.30872 -10.30871
 Alpha  occ. eigenvalues --  -10.23582 -10.23582 -10.23581 -10.21304 -10.21304
 Alpha  occ. eigenvalues --  -10.21303 -10.21249 -10.21249 -10.21249 -10.21097
 Alpha  occ. eigenvalues --  -10.21097 -10.21097 -10.21094 -10.21094 -10.21094
 Alpha  occ. eigenvalues --  -10.20983 -10.20983 -10.20983 -10.20933 -10.20933
 Alpha  occ. eigenvalues --  -10.20932 -10.18985 -10.18985 -10.18984  -1.08980
 Alpha  occ. eigenvalues --   -1.08938  -1.08937  -1.07227  -1.07226  -1.07222
 Alpha  occ. eigenvalues --   -0.98357  -0.97935  -0.97934  -0.90610  -0.89786
 Alpha  occ. eigenvalues --   -0.89785  -0.87054  -0.82121  -0.82121  -0.79393
 Alpha  occ. eigenvalues --   -0.78767  -0.78767  -0.78766  -0.75831  -0.75831
 Alpha  occ. eigenvalues --   -0.69124  -0.69124  -0.68472  -0.68196  -0.67890
 Alpha  occ. eigenvalues --   -0.67889  -0.63319  -0.63318  -0.62849  -0.61462
 Alpha  occ. eigenvalues --   -0.61462  -0.60557  -0.57620  -0.57620  -0.55008
 Alpha  occ. eigenvalues --   -0.53774  -0.52881  -0.52881  -0.51514  -0.50956
 Alpha  occ. eigenvalues --   -0.50755  -0.50755  -0.49962  -0.49961  -0.49768
 Alpha  occ. eigenvalues --   -0.48287  -0.48287  -0.47429  -0.47090  -0.46956
 Alpha  occ. eigenvalues --   -0.46956  -0.46492  -0.46492  -0.46099  -0.45568
 Alpha  occ. eigenvalues --   -0.45391  -0.45391  -0.45090  -0.44974  -0.44974
 Alpha  occ. eigenvalues --   -0.41820  -0.41819  -0.41398  -0.40575  -0.40085
 Alpha  occ. eigenvalues --   -0.40085  -0.39968  -0.39967  -0.39666  -0.39489
 Alpha  occ. eigenvalues --   -0.39489  -0.38742  -0.38661  -0.38660  -0.38446
 Alpha  occ. eigenvalues --   -0.33181  -0.33180  -0.30646  -0.30540  -0.30540
 Alpha  occ. eigenvalues --   -0.30120  -0.29303  -0.29302  -0.29003  -0.29002
 Alpha  occ. eigenvalues --   -0.29001  -0.28612  -0.28331  -0.28331  -0.27981
 Alpha  occ. eigenvalues --   -0.24828  -0.24827
 Alpha virt. eigenvalues --   -0.09614  -0.09607  -0.09606  -0.06342  -0.06342
 Alpha virt. eigenvalues --   -0.05824  -0.02274  -0.02274  -0.01277  -0.01150
 Alpha virt. eigenvalues --   -0.01150   0.00555   0.00817   0.00817   0.00905

 Mulliken charges:
               1
     1  C   -0.252524
     2  C   -0.121520
     3  C   -0.252393
     4  C   -0.121445
     5  C   -0.252526
     6  C   -0.121550
     7  H    0.281669
     8  H    0.281761
     9  H    0.281660
    10  C    0.639317
    11  C   -0.439441
    12  H    0.196345
    13  C   -0.354961
    14  H    0.181316
    15  C   -0.354886
    16  H    0.181314
    17  C   -0.439534
    18  H    0.196346
    19  C    0.639117
    20  C   -0.165331
    21  C   -0.165191
    22  N    0.443617
    23  O   -0.232901
    24  O   -0.232911
    25  C    0.639157
    26  C   -0.439465
    27  H    0.196341
    28  C   -0.354864
    29  H    0.181315
    30  C   -0.354930
    31  H    0.181318
    32  C   -0.439509
    33  H    0.196342
    34  C    0.639278
    35  C   -0.165332
    36  C   -0.165285
    37  N    0.443592
    38  O   -0.232895
    39  O   -0.232915
    40  C    0.639250
    41  C   -0.439564
    42  H    0.196353
    43  C   -0.354877
    44  H    0.181313
    45  C   -0.354931
    46  H    0.181314
    47  C   -0.439530
    48  H    0.196351
    49  C    0.639538
    50  C   -0.165449
    51  C   -0.165272
    52  N    0.443841
    53  O   -0.232922
    54  O   -0.232912
 Sum of Mulliken charges =   0.00000

 Dipole moment (field-independent basis, Debye):
    X=              0.0002    Y=              0.0005    Z=             -0.0011  Tot=              0.0012
 Quadrupole moment (field-independent basis, Debye-Ang):
   XX=           -164.4406   YY=           -164.4458   ZZ=           -236.8152
   XY=             -0.0037   XZ=             -0.0026   YZ=              0.0002

  Exact polarizability:     479.197      -0.013     479.209      -0.003       0.006     263.656
 Approx polarizability:     696.803      -0.014     696.845       0.002       0.010     497.558

                      1                      2                      3
                      A                      A                      A
 Frequencies --     21.7098                23.5763                23.7019
 Red. masses --      6.7401                 7.0199                 7.0111
 Frc consts  --      0.0019                 0.0023                 0.0023
 IR Inten    --      3.2854                 0.8591                 0.8608

                      4                      5                      6
                      A                      A                      A
 Frequencies --     29.3649                29.4154                32.5617
 Red. masses --      7.0883                 7.0812                 7.7800
 Frc consts  --      0.0036                 0.0036                 0.0049
 IR Inten    --      0.2339                 0.2414                 0.0002

                      7                      8                      9
                      A                      A                      A
 Frequencies --     70.5716                73.5525                73.6019
 Red. masses --      8.4142                 7.7558                 7.7583
 Frc consts  --      0.0247                 0.0247                 0.0248
 IR Inten    --      0.7357                 0.2272                 0.2250

                     10                     11                     12
                      A                      A                      A
 Frequencies --    118.2051               118.2295               136.1337
 Red. masses --      9.8679                 9.8684                 5.1578
 Frc consts  --      0.0812                 0.0813                 0.0563
 IR Inten    --      4.5067                 4.5035                 0.3296

                     13                     14                     15
                      A                      A                      A
 Frequencies --    136.1689               137.3361               166.9720
 Red. masses --      5.1580                 5.2349                 9.2993
 Frc consts  --      0.0563                 0.0582                 0.1528
 IR Inten    --      0.3360                 0.0001                 4.6771

                     16                     17                     18
                      A                      A                      A
 Frequencies --    172.8226               174.0208               174.0682
 Red. masses --      9.4651                 7.2679                 7.2660
 Frc consts  --      0.1666                 0.1297                 0.1297
 IR Inten    --      0.0000                 0.5145                 0.5157

                     19                     20                     21
                      A                      A                      A
 Frequencies --    189.4954               231.3573               231.3825
 Red. masses --      6.8102                 5.4425                 5.4411
 Frc consts  --      0.1441                 0.1716                 0.1716
 IR Inten    --      1.6167                 4.3559                 4.3513

                     22                     23                     24
                      A                      A                      A
 Frequencies --    258.9700               264.1115               264.1190
 Red. masses --      7.4341                 9.0582                 9.0557
 Frc consts  --      0.2937                 0.3723                 0.3722
 IR Inten    --      3.5391                 1.7213                 1.7153

                     25                     26                     27
                      A                      A                      A
 Frequencies --    290.0811               290.0929               295.6301
 Red. masses --      5.7548                 5.7544                10.7081
 Frc consts  --      0.2853                 0.2853                 0.5514
 IR Inten    --      2.8038                 2.7968                 0.0010

                     28                     29                     30
                      A                      A                      A
 Frequencies --    364.7964               364.8206               365.5493
 Red. masses --     10.7680                10.7707                10.5799
 Frc consts  --      0.8443                 0.8446                 0.8330
 IR Inten    --     22.9971                22.9709                 0.0037

                     31                     32                     33
                      A                      A                      A
 Frequencies --    378.5739               378.6058               413.7763
 Red. masses --      6.9353                 6.9325                 3.0962
 Frc consts  --      0.5856                 0.5855                 0.3123
 IR Inten    --      1.3160                 1.3347                 2.0535

                     34                     35                     36
                      A                      A                      A
 Frequencies --    416.9309               416.9391               464.0145
 Red. masses --      3.2578                 3.2571                 4.8281
 Frc consts  --      0.3337                 0.3336                 0.6125
 IR Inten    --      0.2663                 0.2650                 0.0034

                     37                     38                     39
                      A                      A                      A
 Frequencies --    464.0170               464.2305               518.0535
 Red. masses --      4.8283                 4.8300                 5.3301
 Frc consts  --      0.6125                 0.6133                 0.8428
 IR Inten    --      0.0034                 0.0000                 4.1007

                     40                     41                     42
                      A                      A                      A
 Frequencies --    538.5543               538.5590               548.5720
 Red. masses --      7.4830                 7.4824                 6.7579
 Frc consts  --      1.2788                 1.2787                 1.1982
 IR Inten    --      6.3704                 6.3548                11.9913

                     43                     44                     45
                      A                      A                      A
 Frequencies --    572.5747               572.5775               580.2939
 Red. masses --      8.8115                 8.8104                10.5080
 Frc consts  --      1.7020                 1.7018                 2.0848
 IR Inten    --      4.4341                 4.4247                 0.0000

                     46                     47                     48
                      A                      A                      A
 Frequencies --    597.6957               597.7414               639.8302
 Red. masses --      5.9218                 5.9225                10.6829
 Frc consts  --      1.2464                 1.2468                 2.5767
 IR Inten    --      0.1566                 0.1611                83.4683

                     49                     50                     51
                      A                      A                      A
 Frequencies --    639.8381               677.9221               677.9237
 Red. masses --     10.6822                 4.9257                 4.9267
 Frc consts  --      2.5766                 1.3338                 1.3340
 IR Inten    --     83.4555                 0.1735                 0.1734

                     52                     53                     54
                      A                      A                      A
 Frequencies --    678.0463               682.0949               688.6478
 Red. masses --      4.9441                 9.3765                 2.4644
 Frc consts  --      1.3392                 2.5703                 0.6886
 IR Inten    --      0.0000                 0.0000                 3.0887

                     55                     56                     57
                      A                      A                      A
 Frequencies --    722.7798               722.8028               722.8343
 Red. masses --      6.3700                 6.6692                 2.9673
 Frc consts  --      1.9607                 2.0529                 0.9135
 IR Inten    --      1.6926                 0.1551                40.3496

                     58                     59                     60
                      A                      A                      A
 Frequencies --    727.4572               727.4637               733.5697
 Red. masses --      2.5337                 2.5341                 3.6654
 Frc consts  --      0.7900                 0.7901                 1.1621
 IR Inten    --     52.1718                52.1512                90.4249

                     61                     62                     63
                      A                      A                      A
 Frequencies --    737.4252               737.4275               796.7700
 Red. masses --      5.9983                 5.9963                 6.1137
 Frc consts  --      1.9218                 1.9212                 2.2867
 IR Inten    --      9.6941                 9.7064                 1.7758

                     64                     65                     66
                      A                      A                      A
 Frequencies --    796.7709               797.2776               800.7776
 Red. masses --      6.1131                 6.1317                 1.9189
 Frc consts  --      2.2865                 2.2964                 0.7250
 IR Inten    --      1.8247                 0.0001                21.0409

                     67                     68                     69
                      A                      A                      A
 Frequencies --    801.2903               801.2951               806.8303
 Red. masses --      1.9438                 1.9439                 7.5034
 Frc consts  --      0.7353                 0.7354                 2.8779
 IR Inten    --      7.5165                 7.4694                 0.0000

                     70                     71                     72
                      A                      A                      A
 Frequencies --    879.3847               884.5348               884.5770
 Red. masses --      2.4077                 2.8570                 2.8664
 Frc consts  --      1.0970                 1.3170                 1.3215
 IR Inten    --     41.6814                 6.1392                 6.1860

                     73                     74                     75
                      A                      A                      A
 Frequencies --    901.9406               903.6876               903.7576
 Red. masses --      3.7888                 2.1379                 2.1322
 Frc consts  --      1.8160                 1.0287                 1.0261
 IR Inten    --     21.4498                20.6460                20.5673

                     76                     77                     78
                      A                      A                      A
 Frequencies --    907.4469               907.4907               907.5355
 Red. masses --      1.3675                 1.3674                 1.3670
 Frc consts  --      0.6635                 0.6635                 0.6633
 IR Inten    --      0.3359                 0.3623                 0.0355

                     79                     80                     81
                      A                      A                      A
 Frequencies --    972.0708               972.0885               983.3158
 Red. masses --      7.6881                 7.6924                 1.3992
 Frc consts  --      4.2802                 4.2828                 0.7971
 IR Inten    --     35.4789                35.4639                 0.9471

                     82                     83                     84
                      A                      A                      A
 Frequencies --    983.3342               983.3364              1012.8258
 Red. masses --      1.3993                 1.3992                 1.3243
 Frc consts  --      0.7972                 0.7972                 0.8004
 IR Inten    --      1.0582                 0.7060                 0.0182

                     85                     86                     87
                      A                      A                      A
 Frequencies --   1012.8312              1012.8738              1021.6766
 Red. masses --      1.3244                 1.3247                 6.2311
 Frc consts  --      0.8005                 0.8007                 3.8322
 IR Inten    --      0.0180                 0.0001                 0.0000

                     88                     89                     90
                      A                      A                      A
 Frequencies --   1030.1034              1032.9951              1033.0153
 Red. masses --      2.2291                 2.0727                 2.0730
 Frc consts  --      1.3936                 1.3031                 1.3033
 IR Inten    --      0.0000                 0.2922                 0.2932

                     91                     92                     93
                      A                      A                      A
 Frequencies --   1089.2823              1089.3202              1093.6023
 Red. masses --      4.1000                 4.0929                 3.1409
 Frc consts  --      2.8663                 2.8615                 2.2132
 IR Inten    --     47.5906                47.5503                92.6510

                     94                     95                     96
                      A                      A                      A
 Frequencies --   1112.1393              1112.1543              1118.2890
 Red. masses --      3.5713                 3.5776                 4.4778
 Frc consts  --      2.6025                 2.6072                 3.2993
 IR Inten    --      9.4857                 9.5563                73.1635

                     97                     98                     99
                      A                      A                      A
 Frequencies --   1150.2511              1161.0494              1161.1568
 Red. masses --      3.2939                 1.8006                 1.8010
 Frc consts  --      2.5677                 1.4301                 1.4307
 IR Inten    --      0.0000                23.3528                23.3252

                    100                    101                    102
                      A                      A                      A
 Frequencies --   1189.8269              1189.8292              1192.6369
 Red. masses --      1.1684                 1.1685                 1.2483
 Frc consts  --      0.9746                 0.9747                 1.0462
 IR Inten    --     22.1698                22.1698                 0.0004

                    103                    104                    105
                      A                      A                      A
 Frequencies --   1192.9876              1193.2341              1193.2416
 Red. masses --      2.1926                 2.1978                 2.1981
 Frc consts  --      1.8386                 1.8437                 1.8440
 IR Inten    --      3.4948                 0.8871                 0.8946

                    106                    107                    108
                      A                      A                      A
 Frequencies --   1227.1479              1227.2031              1271.3884
 Red. masses --      3.0294                 3.0273                 6.8773
 Frc consts  --      2.6878                 2.6862                 6.5498
 IR Inten    --     62.2902                62.4956                 0.0001

                    109                    110                    111
                      A                      A                      A
 Frequencies --   1307.2187              1307.2331              1307.2337
 Red. masses --      1.5623                 1.5620                 1.5620
 Frc consts  --      1.5729                 1.5727                 1.5726
 IR Inten    --      0.3616                 0.4493                 0.2499

                    112                    113                    114
                      A                      A                      A
 Frequencies --   1319.0057              1360.0821              1360.0963
 Red. masses --      2.5044                 6.9682                 6.9733
 Frc consts  --      2.5671                 7.5946                 7.6003
 IR Inten    --      0.2740               894.1548               893.6150

                    115                    116                    117
                      A                      A                      A
 Frequencies --   1361.7262              1387.9065              1387.9108
 Red. masses --      1.9693                 5.7343                 5.7349
 Frc consts  --      2.1515                 6.5081                 6.5088
 IR Inten    --      0.8946               240.8937               241.4252

                    118                    119                    120
                      A                      A                      A
 Frequencies --   1390.7818              1428.0504              1495.4936
 Red. masses --      5.6752                12.6167                 2.4734
 Frc consts  --      6.4677                15.1594                 3.2592
 IR Inten    --      0.0005                 0.0000                17.5855

                    121                    122                    123
                      A                      A                      A
 Frequencies --   1495.5161              1495.6316              1495.6560
 Red. masses --      2.4691                 2.4207                 2.5104
 Frc consts  --      3.2536                 3.1903                 3.3087
 IR Inten    --     17.5249                 8.4911                 0.0297

                    124                    125                    126
                      A                      A                      A
 Frequencies --   1495.6748              1495.8892              1503.5949
 Red. masses --      2.5068                 2.5831                 3.7276
 Frc consts  --      3.3040                 3.4055                 4.9652
 IR Inten    --      0.4544                 0.0039               161.0677

                    127                    128                    129
                      A                      A                      A
 Frequencies --   1503.6485              1642.2862              1642.3091
 Red. masses --      3.7283                 6.1876                 6.1852
 Frc consts  --      4.9665                 9.8326                 9.8291
 IR Inten    --    161.0209                86.8130                86.8796

                    130                    131                    132
                      A                      A                      A
 Frequencies --   1646.3996              1646.4313              1646.4317
 Red. masses --      6.8711                 6.8769                 6.8761
 Frc consts  --     10.9736                10.9833                10.9819
 IR Inten    --     22.1626                15.3102                15.4189

                    133                    134                    135
                      A                      A                      A
 Frequencies --   1647.7744              1650.1118              1650.1335
 Red. masses --      7.3487                 6.7137                 6.7122
 Frc consts  --     11.7559                10.7705                10.7685
 IR Inten    --      0.0034                20.1610                20.2606

                    136                    137                    138
                      A                      A                      A
 Frequencies --   1776.8682              1778.6594              1778.6662
 Red. masses --     12.7716                12.9513                12.9513
 Frc consts  --     23.7578                24.1407                24.1409
 IR Inten    --    886.2372               446.4295               446.4147

                    139                    140                    141
                      A                      A                      A
 Frequencies --   1829.8174              1829.8236              1831.2352
 Red. masses --     12.9856                12.9856                13.0166
 Frc consts  --     25.6169                25.6171                25.7179
 IR Inten    --     78.0877                77.9782                 0.0011

                    142                    143                    144
                      A                      A                      A
 Frequencies --   3171.0307              3171.0316              3171.0319
 Red. masses --      1.0873                 1.0873                 1.0873
 Frc consts  --      6.4415                 6.4415                 6.4415
 IR Inten    --      2.2284                 1.4562                 1.3243

                    145                    146                    147
                      A                      A                      A
 Frequencies --   3184.6550              3184.6577              3184.6669
 Red. masses --      1.0909                 1.0909                 1.0909
 Frc consts  --      6.5186                 6.5186                 6.5186
 IR Inten    --      9.5784                 9.5929                 0.3242

                    148                    149                    150
                      A                      A                      A
 Frequencies --   3196.9465              3196.9496              3196.9529
 Red. masses --      1.0940                 1.0940                 1.0940
 Frc consts  --      6.5875                 6.5875                 6.5875
 IR Inten    --      2.6716                 2.2487                 2.1343

                    151                    152                    153
                      A                      A                      A
 Frequencies --   3200.3043              3200.3070              3200.3476
 Red. masses --      1.0966                 1.0966                 1.0966
 Frc consts  --      6.6172                 6.6172                 6.6175
 IR Inten    --     17.0808                17.0701                 0.0360

                    154                    155                    156
                      A                      A                      A
 Frequencies --   3250.1892              3250.6536              3250.6691
 Red. masses --      1.0937                 1.0922                 1.0922
 Frc consts  --      6.8070                 6.7999                 6.7999
 IR Inten    --      0.0013                 2.8719                 2.8714

 - Thermochemistry -
 -------------------
 Temperature   298.150 Kelvin.  Pressure   1.00000 Atm.
 Atom     1 has atomic number  6 and mass  12.00000

 Molecular mass:   513.09609 amu.
 Principal axes and moments of inertia in atomic units:
                           1         2         3
     Eigenvalues --  ******************************
           X           -0.55979   0.82864   0.00002
           Y            0.82864   0.55979  -0.00000
           Z            0.00001  -0.00002   1.00000
 This molecule is an asymmetric top.
 Rotational symmetry number  1.
 Warning -- assumption of classical behavior for rotation
           may cause significant error
 Rotational temperatures (Kelvin)      0.00377     0.00377     0.00201
 Rotational constants (GHZ):           0.07863     0.07863     0.04197
 Zero-point vibrational energy    1015046.1 (Joules/Mol)
                                  242.60184 (Kcal/Mol)
 Warning -- explicit consideration of  47 degrees of freedom as
           vibrations may cause significant error
 Vibrational temperatures:     31.24    33.92    34.10    42.25    42.32
          (Kelvin)             46.85   101.54   105.83   105.90   170.07
                              170.11   195.87   195.92   197.60   240.24
                              248.65   250.38   250.45   272.64   332.87
                              332.91   372.60   380.00   380.01   417.36
                              417.38   425.35   524.86   524.90   525.94
                              544.68   544.73   595.33   599.87   599.88
                              667.61   667.62   667.92   745.36   774.86
                              774.87   789.27   823.81   823.81   834.91
                              859.95   860.02   920.57   920.58   975.38
                              975.38   975.56   981.38   990.81  1039.92
                             1039.95  1040.00  1046.65  1046.66  1055.44
                             1060.99  1060.99  1146.37  1146.38  1147.10
                             1152.14  1152.88  1152.88  1160.85  1265.24
                             1272.65  1272.71  1297.69  1300.20  1300.31
                             1305.61  1305.68  1305.74  1398.59  1398.62
                             1414.77  1414.80  1414.80  1457.23  1457.24
                             1457.30  1469.96  1482.09  1486.25  1486.28
                             1567.23  1567.29  1573.45  1600.12  1600.14
                             1608.97  1654.95  1670.49  1670.65  1711.90
                             1711.90  1715.94  1716.44  1716.80  1716.81
                             1765.59  1765.67  1829.24  1880.80  1880.82
                             1880.82  1897.75  1956.85  1956.88  1959.22
                             1996.89  1996.89  2001.02  2054.65  2151.68
                             2151.71  2151.88  2151.92  2151.94  2152.25
                             2163.34  2163.41  2362.88  2362.92  2368.80
                             2368.85  2368.85  2370.78  2374.14  2374.17
                             2556.52  2559.09  2559.10  2632.70  2632.71
                             2634.74  4562.41  4562.41  4562.41  4582.01
                             4582.01  4582.03  4599.69  4599.70  4599.70
                             4604.52  4604.53  4604.59  4676.30  4676.97
                             4676.99

 Zero-point correction=                           0.386611 (Hartree/Particle)
 Thermal correction to Energy=                    0.415913
 Thermal correction to Enthalpy=                  0.416858
 Thermal correction to Gibbs Free Energy=         0.323623
 Sum of electronic and zero-point Energies=          -1768.060766
 Sum of electronic and thermal Energies=             -1768.031463
 Sum of electronic and thermal Enthalpies=           -1768.030519
 Sum of electronic and thermal Free Energies=        -1768.123754

                     E (Thermal)             CV                S
                      KCal/Mol        Cal/Mol-Kelvin    Cal/Mol-Kelvin
 Total                  260.990            115.231            196.230
 Electronic               0.000              0.000              0.000
 Translational            0.889              2.981             44.592
 Rotational               0.889              2.981             38.358
 Vibrational            259.212            109.269            113.280
 Vibration     1          0.593              1.985              6.471
 Vibration     2          0.593              1.985              6.308
 Vibration     3          0.593              1.985              6.297
 Vibration     4          0.593              1.984              5.872
 Vibration     5          0.593              1.984              5.868
 Vibration     6          0.594              1.983              5.667
 Vibration     7          0.598              1.968              4.137
 Vibration     8          0.599              1.966              4.056
 Vibration     9          0.599              1.966              4.055
 Vibration    10          0.608              1.934              3.130
 Vibration    11          0.608              1.934              3.129
 Vibration    12          0.614              1.917              2.858
 Vibration    13          0.614              1.917              2.857
 Vibration    14          0.614              1.916              2.841
 Vibration    15          0.624              1.883              2.469
 Vibration    16          0.626              1.876              2.405
 Vibration    17          0.627              1.874              2.392
 Vibration    18          0.627              1.874              2.391
 Vibration    19          0.633              1.854              2.233
 Vibration    20          0.653              1.793              1.868
 Vibration    21          0.653              1.793              1.868
 Vibration    22          0.668              1.748              1.669
 Vibration    23          0.671              1.739              1.634
 Vibration    24          0.671              1.739              1.634
 Vibration    25          0.686              1.692              1.473
 Vibration    26          0.686              1.692              1.473
 Vibration    27          0.690              1.682              1.442
 Vibration    28          0.738              1.545              1.102
 Vibration    29          0.738              1.545              1.101
 Vibration    30          0.739              1.543              1.098
 Vibration    31          0.749              1.516              1.045
 Vibration    32          0.749              1.516              1.045
 Vibration    33          0.777              1.440              0.913
 Vibration    34          0.780              1.433              0.902
 Vibration    35          0.780              1.433              0.902
 Vibration    36          0.822              1.330              0.755
 Vibration    37          0.822              1.330              0.755
 Vibration    38          0.822              1.329              0.754
 Vibration    39          0.873              1.210              0.614
 Vibration    40          0.894              1.165              0.568
 Vibration    41          0.894              1.165              0.568
 Vibration    42          0.904              1.143              0.547
 Vibration    43          0.929              1.091              0.499
 Vibration    44          0.929              1.091              0.499
 Vibration    45          0.937              1.074              0.485
 Vibration    46          0.956              1.037              0.454
 Vibration    47          0.956              1.037              0.454

 Optimization completed.
    -- Stationary point found.
 Normal termination of Gaussian 16 at Tue Jan 12 12:05:14 2021.
