 Gaussian 16, Revision C.01,
 Gaussian 16:  ES64L-G16RevC.01  3-Jul-2019

 ----------------------------------------------------------------------
 #P B3LYP/6-311++G(d,p) EmpiricalDispersion=GD3 freq(noraman) SCF=YQC N
 oSymm
 ----------------------------------------------------------------------

 --------------------------------------------------------------
 Restart from 2_Phenyl_C_CarboxylicAnhydride_Imide_freq_opt.log
 --------------------------------------------------------------
 Symbolic Z-matrix:
 Charge =  0 Multiplicity = 1

                          Input orientation:
 ---------------------------------------------------------------------
 Center     Atomic      Atomic             Coordinates (Angstroms)
 Number     Number       Type             X           Y           Z
 ---------------------------------------------------------------------
      1          6           0       -1.164986   -0.692992   -0.100062
      2          6           0       -1.166399    0.690176    0.104148
      3          6           0       -0.000499    1.457768    0.213545
      4          6           0        1.166948    0.693181    0.100847
      5          6           0        1.168362   -0.690416   -0.103433
      6          6           0        0.002440   -1.457801   -0.212768
      7          6           0       -0.003288    2.942792    0.447853
      8          6           0        0.002315   -2.942844   -0.446980
      9          1           0       -0.885468   -3.404188   -0.019309
     10          1           0       -0.017383   -3.145240   -1.523436
     11          1           0        0.906141   -3.400250   -0.050393
     12          1           0        0.896987    3.402662    0.046022
     13          1           0       -0.894808    3.401778    0.025434
     14          1           0       -0.016947    3.145044    1.524428
     15          6           0       -2.585160   -1.156040   -0.170456
     16          6           0       -2.587553    1.149682    0.178516
     17          7           0       -3.380985   -0.004196    0.005135
     18          8           0       -3.010488    2.267394    0.351279
     19          8           0       -3.005698   -2.274842   -0.342148
     20          6           0       -4.809084   -0.005958    0.006819
     21          6           0       -5.503198    0.955925   -0.728307
     22          1           0       -4.958207    1.703971   -1.287628
     23          6           0       -6.895199    0.953258   -0.717917
     24          1           0       -7.433819    1.704393   -1.283871
     25          6           0       -7.592469   -0.009532    0.010113
     26          1           0       -8.676335   -0.010916    0.011391
     27          6           0       -6.891017   -0.970532    0.736481
     28          1           0       -7.426394   -1.723038    1.303677
     29          6           0       -5.499000   -0.969619    0.743588
     30          1           0       -4.950765   -1.716264    1.301624
     31          6           0        2.587347    1.156053    0.171155
     32          6           0        2.589745   -1.149734   -0.177772
     33          7           0        3.382948    0.004186   -0.004498
     34          8           0        3.013397   -2.267172   -0.350663
     35          8           0        3.008601    2.274596    0.342886
     36          6           0        4.811080    0.005971   -0.006294
     37          6           0        5.505239   -0.955044    0.729892
     38          1           0        4.960272   -1.702435    1.290120
     39          6           0        6.897239   -0.952367    0.719397
     40          1           0        7.435929   -1.702825    1.286181
     41          6           0        7.594419    0.009589   -0.009825
     42          1           0        8.678285    0.010987   -0.011194
     43          6           0        6.892905    0.969731   -0.737270
     44          1           0        7.428229    1.721576   -1.305390
     45          6           0        5.500886    0.968782   -0.744245
     46          1           0        4.952563    1.714751   -1.303105
 ---------------------------------------------------------------------

 SCF Done:  E(RB3LYP) =  -1335.06561807     a.u. after    8 cycles
 SCF Done:  E(RB3LYP) =  -1335.06563512     A.U. after    9 cycles

 Alpha  occ. eigenvalues --  -19.14032 -19.14031 -19.14030 -19.14029 -14.38946
 Alpha  occ. eigenvalues --  -14.38944 -10.31854 -10.31852 -10.31851 -10.31850
 Alpha  occ. eigenvalues --  -10.23866 -10.23865 -10.23610 -10.23610 -10.22919
 Alpha  occ. eigenvalues --  -10.22909 -10.22865 -10.22856 -10.19123 -10.19122
 Alpha  occ. eigenvalues --  -10.19122 -10.19121 -10.18910 -10.18910 -10.18899
 Alpha  occ. eigenvalues --  -10.18898 -10.18776 -10.18775 -10.18008 -10.18007
 Alpha  occ. eigenvalues --   -1.09990  -1.09945  -1.08191  -1.08178  -0.99027
 Alpha  occ. eigenvalues --   -0.98881  -0.92093  -0.88095  -0.87099  -0.83406
 Alpha  occ. eigenvalues --   -0.83398  -0.78935  -0.76623  -0.76622  -0.75454
 Alpha  occ. eigenvalues --   -0.74693  -0.71056  -0.70467  -0.69475  -0.66703
 Alpha  occ. eigenvalues --   -0.64748  -0.64719  -0.62591  -0.61504  -0.61112
 Alpha  occ. eigenvalues --   -0.57518  -0.56318  -0.55997  -0.54204  -0.53375
 Alpha  occ. eigenvalues --   -0.51800  -0.50849  -0.50345  -0.50083  -0.48922
 Alpha  occ. eigenvalues --   -0.48614  -0.48207  -0.47148  -0.47025  -0.46367
 Alpha  occ. eigenvalues --   -0.46082  -0.45387  -0.44853  -0.44694  -0.44230
 Alpha  occ. eigenvalues --   -0.44224  -0.43851  -0.43846  -0.43345  -0.42355
 Alpha  occ. eigenvalues --   -0.41631  -0.40935  -0.40412  -0.39650  -0.39106
 Alpha  occ. eigenvalues --   -0.38922  -0.38071  -0.37987  -0.37729  -0.36854
 Alpha  occ. eigenvalues --   -0.36851  -0.32314  -0.32275  -0.31638  -0.31246
 Alpha  occ. eigenvalues --   -0.30710  -0.29789  -0.28555  -0.28373  -0.26986
 Alpha  occ. eigenvalues --   -0.26977  -0.26014  -0.25486
 Alpha virt. eigenvalues --   -0.12608  -0.07950  -0.06639  -0.03248  -0.02760
 Alpha virt. eigenvalues --   -0.02696  -0.02645  -0.01557  -0.00745  -0.00314
 Alpha virt. eigenvalues --    0.00350   0.00965   0.01083   0.01258   0.02087

 Mulliken charges:
               1
     1  C    0.218503
     2  C    0.221007
     3  C   -0.116315
     4  C    0.216842
     5  C    0.219433
     6  C   -0.116418
     7  C   -0.518216
     8  C   -0.518179
     9  H    0.177422
    10  H    0.209423
    11  H    0.178187
    12  H    0.178140
    13  H    0.177480
    14  H    0.209428
    15  C   -0.292353
    16  C   -0.293968
    17  N    0.439681
    18  O   -0.223268
    19  O   -0.223366
    20  C   -0.736717
    21  C    0.286240
    22  H    0.198886
    23  C   -0.124158
    24  H    0.181549
    25  C   -0.281991
    26  H    0.159968
    27  C   -0.124081
    28  H    0.181537
    29  C    0.285793
    30  H    0.198901
    31  C   -0.293489
    32  C   -0.295087
    33  N    0.440656
    34  O   -0.222891
    35  O   -0.222976
    36  C   -0.739065
    37  C    0.286339
    38  H    0.198715
    39  C   -0.123902
    40  H    0.181578
    41  C   -0.281756
    42  H    0.159962
    43  C   -0.123848
    44  H    0.181566
    45  C    0.286079
    46  H    0.198725
 Sum of Mulliken charges =  -0.00000

 Dipole moment (field-independent basis, Debye):
    X=             -0.0033    Y=             -0.0000    Z=              0.0001  Tot=              0.0033
 Quadrupole moment (field-independent basis, Debye-Ang):
   XX=           -152.6916   YY=           -184.0667   ZZ=           -169.5829
   XY=              0.0263   XZ=             -0.0042   YZ=            -11.5304

  Exact polarizability:     497.717       0.251     297.178      -0.409     -12.141     177.135
 Approx polarizability:     618.615       0.057     567.895      -0.382     -27.460     303.674

                      1                      2                      3
                      A                      A                      A
 Frequencies --     14.1967                19.0671                32.7878
 Red. masses --      1.1078                 5.9938                 1.2305
 Frc consts  --      0.0001                 0.0013                 0.0008
 IR Inten    --      0.0007                 0.1195                 0.0991

                      4                      5                      6
                      A                      A                      A
 Frequencies --     40.7344                45.0479                51.1507
 Red. masses --      2.7266                 7.6489                 3.7680
 Frc consts  --      0.0027                 0.0091                 0.0058
 IR Inten    --      0.5836                 0.0000                 0.0000

                      7                      8                      9
                      A                      A                      A
 Frequencies --     55.0784                76.0265                87.0894
 Red. masses --      5.6494                 9.0668                 5.3053
 Frc consts  --      0.0101                 0.0309                 0.0237
 IR Inten    --      0.4702                 0.9892                 0.0000

                     10                     11                     12
                      A                      A                      A
 Frequencies --     90.8272               103.3219               145.9865
 Red. masses --      4.5346                 5.2981                 7.6782
 Frc consts  --      0.0220                 0.0333                 0.0964
 IR Inten    --      6.1053                 0.0001                 5.4741

                     13                     14                     15
                      A                      A                      A
 Frequencies --    149.5543               153.1300               190.5608
 Red. masses --      4.9194                 8.6890                 7.4038
 Frc consts  --      0.0648                 0.1200                 0.1584
 IR Inten    --      1.8127                 0.0032                 0.0000

                     16                     17                     18
                      A                      A                      A
 Frequencies --    195.8639               238.4083               266.7867
 Red. masses --      6.8066                 5.9640                 5.1014
 Frc consts  --      0.1538                 0.1997                 0.2139
 IR Inten    --      4.9953                 0.0001                 5.6735

                     19                     20                     21
                      A                      A                      A
 Frequencies --    269.8070               286.3945               310.7621
 Red. masses --      4.9256                 6.3892                 6.9273
 Frc consts  --      0.2113                 0.3088                 0.3942
 IR Inten    --      0.0000                 2.0437                 0.0002

                     22                     23                     24
                      A                      A                      A
 Frequencies --    328.1815               344.2943               346.5394
 Red. masses --     12.5960                 4.2729                 4.3240
 Frc consts  --      0.7993                 0.2984                 0.3059
 IR Inten    --      0.0009                 0.0003                 0.0175

                     25                     26                     27
                      A                      A                      A
 Frequencies --    353.4866               390.6251               412.2295
 Red. masses --      3.2680                 6.4369                 6.3527
 Frc consts  --      0.2406                 0.5787                 0.6360
 IR Inten    --     26.8256                 0.4370                 0.0000

                     28                     29                     30
                      A                      A                      A
 Frequencies --    416.1507               416.1844               454.2490
 Red. masses --      2.9027                 2.9018                 9.2600
 Frc consts  --      0.2962                 0.2961                 1.1258
 IR Inten    --      0.9258                 0.0134                16.3670

                     31                     32                     33
                      A                      A                      A
 Frequencies --    480.8962               481.9412               497.8005
 Red. masses --      6.9630                 5.2988                12.1975
 Frc consts  --      0.9487                 0.7251                 1.7809
 IR Inten    --     10.0177                 0.0000                 0.1181

                     34                     35                     36
                      A                      A                      A
 Frequencies --    515.9896               516.2156               570.1634
 Red. masses --      3.3866                 3.3743                 4.4238
 Frc consts  --      0.5312                 0.5298                 0.8473
 IR Inten    --     18.1271                 0.0034                 3.3514

                     37                     38                     39
                      A                      A                      A
 Frequencies --    593.0840               627.7218               630.3912
 Red. masses --      9.3101                 6.0078                11.0477
 Frc consts  --      1.9295                 1.3948                 2.5867
 IR Inten    --      0.0003                 0.0004                76.3263

                     40                     41                     42
                      A                      A                      A
 Frequencies --    631.4713               633.3324               637.6013
 Red. masses --      6.3785                 6.0255                 9.7368
 Frc consts  --      1.4986                 1.4240                 2.3322
 IR Inten    --      0.4488                 0.0003                 0.0005

                     43                     44                     45
                      A                      A                      A
 Frequencies --    652.9950               695.4793               699.9010
 Red. masses --      7.3930                 6.6554                 2.0144
 Frc consts  --      1.8573                 1.8967                 0.5814
 IR Inten    --      0.0000                13.0891                52.5930

                     46                     47                     48
                      A                      A                      A
 Frequencies --    700.3430               754.8310               756.6930
 Red. masses --      1.9648                 2.5233                 2.4050
 Frc consts  --      0.5678                 0.8471                 0.8113
 IR Inten    --      0.0465                36.6745                 0.0044

                     49                     50                     51
                      A                      A                      A
 Frequencies --    771.1009               775.9631               788.1707
 Red. masses --      3.5544                 4.6030                 9.2974
 Frc consts  --      1.2452                 1.6330                 3.4029
 IR Inten    --     87.2477                 0.0004                 0.0002

                     52                     53                     54
                      A                      A                      A
 Frequencies --    793.4278               815.0236               817.6782
 Red. masses --     12.0284                 5.4551                 7.0207
 Frc consts  --      4.4614                 2.1350                 2.7656
 IR Inten    --      3.0744                 0.0006                 0.0002

                     55                     56                     57
                      A                      A                      A
 Frequencies --    836.7151               842.3821               842.8464
 Red. masses --      6.9197                 1.2570                 1.2578
 Frc consts  --      2.8543                 0.5255                 0.5265
 IR Inten    --     19.4188                 0.2454                 0.0001

                     58                     59                     60
                      A                      A                      A
 Frequencies --    875.5722               877.7770               924.5900
 Red. masses --      7.2454                 4.4883                 1.4228
 Frc consts  --      3.2726                 2.0375                 0.7166
 IR Inten    --     67.0702               110.3270                 0.0000

                     61                     62                     63
                      A                      A                      A
 Frequencies --    925.6734               981.4546               981.4758
 Red. masses --      1.4472                 1.3728                 1.3728
 Frc consts  --      0.7306                 0.7791                 0.7791
 IR Inten    --     11.0978                 0.0302                 0.0050

                     64                     65                     66
                      A                      A                      A
 Frequencies --   1002.3887              1002.4126              1018.6466
 Red. masses --      1.2930                 1.2930                 6.1772
 Frc consts  --      0.7655                 0.7655                 3.7765
 IR Inten    --      0.1946                 0.2831                 0.0342

                     67                     68                     69
                      A                      A                      A
 Frequencies --   1018.6710              1027.1323              1045.3236
 Red. masses --      6.1524                 3.4445                 2.1356
 Frc consts  --      3.7615                 2.1410                 1.3749
 IR Inten    --      2.6080                 0.0025                 0.0063

                     70                     71                     72
                      A                      A                      A
 Frequencies --   1047.9783              1049.9856              1052.2209
 Red. masses --      2.3134                 1.8924                 1.5432
 Frc consts  --      1.4969                 1.2292                 1.0067
 IR Inten    --      3.2983                 0.0024                 4.6463

                     73                     74                     75
                      A                      A                      A
 Frequencies --   1065.3469              1078.7141              1089.1889
 Red. masses --      1.6613                 3.6175                 2.7455
 Frc consts  --      1.1109                 2.4801                 1.9190
 IR Inten    --      3.0736                 0.0014                 0.0053

                     76                     77                     78
                      A                      A                      A
 Frequencies --   1098.6244              1121.3716              1138.8261
 Red. masses --      2.4712                 1.7843                 3.0142
 Frc consts  --      1.7574                 1.3219                 2.3032
 IR Inten    --     59.8767                 0.0011               173.5440

                     79                     80                     81
                      A                      A                      A
 Frequencies --   1160.6785              1187.4789              1189.6367
 Red. masses --      3.6566                 3.5540                 4.6153
 Frc consts  --      2.9024                 2.9527                 3.8484
 IR Inten    --      0.0034               171.3429                 0.0140

                     82                     83                     84
                      A                      A                      A
 Frequencies --   1193.4365              1193.4436              1214.7371
 Red. masses --      1.1207                 1.1206                 1.1694
 Frc consts  --      0.9404                 0.9404                 1.0166
 IR Inten    --      0.0945                 0.0372                 0.0064

                     85                     86                     87
                      A                      A                      A
 Frequencies --   1215.0748              1284.4213              1301.4458
 Red. masses --      1.1825                 7.8756                 8.5788
 Frc consts  --      1.0286                 7.6550                 8.5611
 IR Inten    --      1.7089                 0.0615                 0.0002

                     88                     89                     90
                      A                      A                      A
 Frequencies --   1333.4452              1333.6380              1361.7427
 Red. masses --      5.1914                 5.2130                 1.3960
 Frc consts  --      5.4386                 5.4628                 1.5252
 IR Inten    --      0.0023                 3.7493                 0.6373

                     91                     92                     93
                      A                      A                      A
 Frequencies --   1361.7896              1376.5077              1392.1312
 Red. masses --      1.3961                 6.6662                 8.6684
 Frc consts  --      1.5254                 7.4419                 9.8980
 IR Inten    --      0.2490               885.8812                 0.8340

                     94                     95                     96
                      A                      A                      A
 Frequencies --   1393.2084              1395.1986              1423.4063
 Red. masses --      8.5371                 6.3152                 1.1835
 Frc consts  --      9.7632                 7.2428                 1.4128
 IR Inten    --     85.0369               517.0124                 0.0172

                     97                     98                     99
                      A                      A                      A
 Frequencies --   1424.0488              1479.0679              1480.4558
 Red. masses --      1.2042                 1.4174                 1.1228
 Frc consts  --      1.4388                 1.8269                 1.4499
 IR Inten    --     20.6598                14.7252                 1.5717

                    100                    101                    102
                      A                      A                      A
 Frequencies --   1486.4617              1486.4803              1488.0880
 Red. masses --      2.2675                 2.2676                 1.0724
 Frc consts  --      2.9519                 2.9521                 1.3992
 IR Inten    --      0.1433                11.9060                 0.0002

                    103                    104                    105
                      A                      A                      A
 Frequencies --   1498.8303              1509.1619              1530.2765
 Red. masses --      1.1243                 2.9962                 2.2670
 Frc consts  --      1.4881                 4.0206                 3.1279
 IR Inten    --      2.8537                33.2781               183.6019

                    106                    107                    108
                      A                      A                      A
 Frequencies --   1530.4830              1612.5237              1629.2387
 Red. masses --      2.2727                 6.4567                 5.8550
 Frc consts  --      3.1366                 9.8918                 9.1569
 IR Inten    --      0.2613                 0.0062                 0.3012

                    109                    110                    111
                      A                      A                      A
 Frequencies --   1629.2676              1640.8467              1641.4503
 Red. masses --      5.8534                 5.5729                 5.4125
 Frc consts  --      9.1547                 8.8403                 8.5922
 IR Inten    --      3.4918                 0.0013                41.5593

                    112                    113                    114
                      A                      A                      A
 Frequencies --   1653.1067              1762.8708              1771.7330
 Red. masses --     10.5627                12.9286                12.2653
 Frc consts  --     17.0070                23.6725                22.6842
 IR Inten    --      0.0002                 0.0372              1109.7465

                    115                    116                    117
                      A                      A                      A
 Frequencies --   1812.7274              1826.7123              3034.2745
 Red. masses --     12.9847                12.5856                 1.0519
 Frc consts  --     25.1389                24.7436                 5.7059
 IR Inten    --    153.8892                 0.0010                 0.0073

                    118                    119                    120
                      A                      A                      A
 Frequencies --   3034.4759              3113.1359              3113.2828
 Red. masses --      1.0519                 1.0803                 1.0803
 Frc consts  --      5.7067                 6.1688                 6.1692
 IR Inten    --      6.8138                 0.9177                 9.5095

                    121                    122                    123
                      A                      A                      A
 Frequencies --   3161.3527              3161.5068              3166.4471
 Red. masses --      1.1050                 1.1050                 1.0862
 Frc consts  --      6.5066                 6.5073                 6.4163
 IR Inten    --      0.1231                 0.0415                 0.0984

                    124                    125                    126
                      A                      A                      A
 Frequencies --   3166.4548              3177.8172              3177.8244
 Red. masses --      1.0862                 1.0903                 1.0903
 Frc consts  --      6.4164                 6.4870                 6.4870
 IR Inten    --      0.0117                 6.8221                14.3284

                    127                    128                    129
                      A                      A                      A
 Frequencies --   3189.3653              3189.4049              3210.4820
 Red. masses --      1.0953                 1.0953                 1.0934
 Frc consts  --      6.5644                 6.5645                 6.6399
 IR Inten    --     49.6932                 0.0009                 2.9409

                    130                    131                    132
                      A                      A                      A
 Frequencies --   3210.5300              3211.3205              3211.3650
 Red. masses --      1.0934                 1.0948                 1.0948
 Frc consts  --      6.6401                 6.6522                 6.6523
 IR Inten    --      3.1674                 0.0020                 0.0026

 - Thermochemistry -
 -------------------
 Temperature   298.150 Kelvin.  Pressure   1.00000 Atm.
 Atom     1 has atomic number  6 and mass  12.00000

 Molecular mass:   396.11101 amu.
 Principal axes and moments of inertia in atomic units:
                           1         2         3
     Eigenvalues --  3356.22770********************
           X            1.00000  -0.00121   0.00139
           Y            0.00125   0.99938  -0.03522
           Z           -0.00134   0.03522   0.99938
 This molecule is an asymmetric top.
 Rotational symmetry number  1.
 Warning -- assumption of classical behavior for rotation
           may cause significant error
 Rotational temperatures (Kelvin)      0.02581     0.00322     0.00292
 Rotational constants (GHZ):           0.53773     0.06720     0.06095
 Zero-point vibrational energy     907979.7 (Joules/Mol)
                                  217.01235 (Kcal/Mol)
 Warning -- explicit consideration of  37 degrees of freedom as
           vibrations may cause significant error
 Vibrational temperatures:     20.43    27.43    47.17    58.61    64.81
          (Kelvin)             73.59    79.25   109.39   125.30   130.68
                              148.66   210.04   215.18   220.32   274.17
                              281.80   343.02   383.85   388.19   412.06
                              447.12   472.18   495.36   498.59   508.59
                              562.02   593.11   598.75   598.80   653.56
                              691.90   693.41   716.22   742.39   742.72
                              820.34   853.32   903.15   906.99   908.55
                              911.22   917.37   939.51  1000.64  1007.00
                             1007.64  1086.03  1088.71  1109.44  1116.44
                             1134.00  1141.57  1172.64  1176.46  1203.85
                             1212.00  1212.67  1259.75  1262.93  1330.28
                             1331.84  1412.09  1412.12  1442.21  1442.25
                             1465.61  1465.64  1477.81  1503.99  1507.81
                             1510.70  1513.91  1532.80  1552.03  1567.10
                             1580.68  1613.40  1638.52  1669.96  1708.52
                             1711.62  1717.09  1717.10  1747.74  1748.22
                             1848.00  1872.49  1918.53  1918.81  1959.24
                             1959.31  1980.49  2002.97  2004.52  2007.38
                             2047.96  2048.89  2128.05  2130.05  2138.69
                             2138.71  2141.03  2156.48  2171.35  2201.73
                             2202.02  2320.06  2344.11  2344.15  2360.81
                             2361.68  2378.45  2536.38  2549.13  2608.11
                             2628.23  4365.64  4365.93  4479.11  4479.32
                             4548.48  4548.70  4555.81  4555.82  4572.17
                             4572.18  4588.79  4588.84  4619.17  4619.24
                             4620.37  4620.44

 Zero-point correction=                           0.345831 (Hartree/Particle)
 Thermal correction to Energy=                    0.370574
 Thermal correction to Enthalpy=                  0.371518
 Thermal correction to Gibbs Free Energy=         0.287791
 Sum of electronic and zero-point Energies=          -1334.719804
 Sum of electronic and thermal Energies=             -1334.695061
 Sum of electronic and thermal Enthalpies=           -1334.694117
 Sum of electronic and thermal Free Energies=        -1334.777844

                     E (Thermal)             CV                S
                      KCal/Mol        Cal/Mol-Kelvin    Cal/Mol-Kelvin
 Total                  232.539             94.580            176.219
 Electronic               0.000              0.000              0.000
 Translational            0.889              2.981             43.821
 Rotational               0.889              2.981             36.233
 Vibrational            230.761             88.618             96.166
 Vibration     1          0.593              1.986              7.315
 Vibration     2          0.593              1.986              6.729
 Vibration     3          0.594              1.983              5.653
 Vibration     4          0.594              1.981              5.223
 Vibration     5          0.595              1.979              5.024
 Vibration     6          0.595              1.977              4.772
 Vibration     7          0.596              1.976              4.626
 Vibration     8          0.599              1.965              3.991
 Vibration     9          0.601              1.958              3.724
 Vibration    10          0.602              1.956              3.642
 Vibration    11          0.605              1.947              3.391
 Vibration    12          0.617              1.907              2.724
 Vibration    13          0.618              1.903              2.678
 Vibration    14          0.619              1.899              2.633
 Vibration    15          0.634              1.853              2.222
 Vibration    16          0.636              1.846              2.172
 Vibration    17          0.656              1.782              1.815
 Vibration    18          0.672              1.734              1.617
 Vibration    19          0.674              1.729              1.597
 Vibration    20          0.684              1.699              1.495
 Vibration    21          0.700              1.653              1.358
 Vibration    22          0.711              1.619              1.269
 Vibration    23          0.723              1.587              1.192
 Vibration    24          0.725              1.582              1.182
 Vibration    25          0.730              1.568              1.151
 Vibration    26          0.758              1.490              0.998
 Vibration    27          0.776              1.444              0.919
 Vibration    28          0.779              1.435              0.905
 Vibration    29          0.779              1.435              0.905
 Vibration    30          0.813              1.351              0.783
 Vibration    31          0.837              1.292              0.708
 Vibration    32          0.838              1.290              0.705
 Vibration    33          0.853              1.255              0.664
 Vibration    34          0.871              1.215              0.619
 Vibration    35          0.871              1.214              0.619
 Vibration    36          0.926              1.096              0.504
 Vibration    37          0.951              1.047              0.462

 Normal termination of Gaussian 16 at Fri Jan 15 18:38:38 2021.
