 Gaussian 16, Revision C.01,
 Gaussian 16:  ES64L-G16RevC.01  3-Jul-2019

 --------------------------------------------------------------------
 #P B3LYP/6-311++G(d,p) EmpiricalDispersion=GD3 freq(noraman) SCF=YQC
 --------------------------------------------------------------------

 --------------------------------------------
 Restart from Pyrene_BoronicAcid_Boroxine.log
 --------------------------------------------
 Symbolic Z-matrix:
 Charge =  0 Multiplicity = 1

                         Standard orientation:
 ---------------------------------------------------------------------
 Center     Atomic      Atomic             Coordinates (Angstroms)
 Number     Number       Type             X           Y           Z
 ---------------------------------------------------------------------
      1          6           0        0.000001    3.535312   -0.000090
      2          6           0        1.209026    2.824661   -0.000089
      3          6           0        1.235535    1.425710   -0.000090
      4          6           0        0.000000    0.711740   -0.000089
      5          6           0       -1.235535    1.425711   -0.000090
      6          6           0       -1.209026    2.824661   -0.000089
      7          1           0        2.145391    3.372612   -0.000093
      8          1           0       -2.145389    3.372614   -0.000093
      9          6           0       -0.000000   -0.711740   -0.000089
     10          6           0        1.235535   -1.425711   -0.000090
     11          6           0        1.209026   -2.824661   -0.000089
     12          6           0       -0.000001   -3.535312   -0.000090
     13          6           0       -1.209026   -2.824661   -0.000089
     14          6           0       -1.235535   -1.425710   -0.000090
     15          1           0        2.145389   -3.372614   -0.000093
     16          1           0       -2.145391   -3.372612   -0.000093
     17          6           0       -2.464297    0.679189   -0.000092
     18          6           0       -2.464297   -0.679189   -0.000092
     19          1           0       -3.399529    1.228924   -0.000093
     20          1           0       -3.399529   -1.228924   -0.000093
     21          6           0        2.464297    0.679189   -0.000092
     22          6           0        2.464297   -0.679189   -0.000092
     23          1           0        3.399529    1.228924   -0.000093
     24          1           0        3.399529   -1.228924   -0.000093
     25          5           0        0.000000    5.081057   -0.000102
     26          8           0       -1.191059    5.792294    0.000008
     27          5           0       -1.196807    7.165735    0.000154
     28          8           0        1.191059    5.792294    0.000011
     29          5           0        1.196807    7.165735    0.000158
     30          8           0        0.000000    7.849968    0.000354
     31          1           0       -2.222781    7.759801    0.000327
     32          1           0        2.222781    7.759803    0.000338
     33          5           0       -0.000000   -5.081057   -0.000102
     34          8           0        1.191059   -5.792294    0.000008
     35          5           0        1.196807   -7.165735    0.000154
     36          8           0       -1.191059   -5.792294    0.000011
     37          5           0       -1.196807   -7.165735    0.000158
     38          8           0       -0.000000   -7.849968    0.000354
     39          1           0        2.222781   -7.759801    0.000327
     40          1           0       -2.222781   -7.759803    0.000338
 ---------------------------------------------------------------------

 SCF Done:  E(RB3LYP) =  -1218.39881713     a.u. after    6 cycles
 SCF Done:  E(RB3LYP) =  -1218.39884491     A.U. after    9 cycles

 The electronic state is 1-A.
 Alpha  occ. eigenvalues --  -19.15812 -19.15812 -19.15794 -19.15794 -19.15794
 Alpha  occ. eigenvalues --  -19.15794 -10.20145 -10.20102 -10.19921 -10.19920
 Alpha  occ. eigenvalues --  -10.19915 -10.19915 -10.19073 -10.19073 -10.19056
 Alpha  occ. eigenvalues --  -10.19056 -10.19055 -10.19055 -10.19002 -10.19002
 Alpha  occ. eigenvalues --  -10.17540 -10.17539  -6.81688  -6.81688  -6.81687
 Alpha  occ. eigenvalues --   -6.81687  -6.81642  -6.81642  -1.09133  -1.09132
 Alpha  occ. eigenvalues --   -1.03194  -1.03194  -1.03192  -1.03192  -0.90957
 Alpha  occ. eigenvalues --   -0.86606  -0.84670  -0.81147  -0.78225  -0.76467
 Alpha  occ. eigenvalues --   -0.74700  -0.72541  -0.65460  -0.64442  -0.63929
 Alpha  occ. eigenvalues --   -0.62694  -0.61139  -0.60623  -0.60598  -0.59295
 Alpha  occ. eigenvalues --   -0.55503  -0.55308  -0.54506  -0.53860  -0.53044
 Alpha  occ. eigenvalues --   -0.51381  -0.50838  -0.50634  -0.50137  -0.46751
 Alpha  occ. eigenvalues --   -0.46741  -0.46665  -0.45012  -0.44898  -0.44507
 Alpha  occ. eigenvalues --   -0.42866  -0.41974  -0.41700  -0.41263  -0.41099
 Alpha  occ. eigenvalues --   -0.40829  -0.40758  -0.40751  -0.40124  -0.39302
 Alpha  occ. eigenvalues --   -0.38797  -0.38700  -0.38700  -0.37722  -0.37718
 Alpha  occ. eigenvalues --   -0.37294  -0.35895  -0.35771  -0.34309  -0.34189
 Alpha  occ. eigenvalues --   -0.34085  -0.33314  -0.33245  -0.31491  -0.29164
 Alpha  occ. eigenvalues --   -0.27405  -0.25345  -0.21630
 Alpha virt. eigenvalues --   -0.08028  -0.07508  -0.04000  -0.03059  -0.03003
 Alpha virt. eigenvalues --   -0.02592  -0.01103  -0.00932  -0.00492  -0.00131
 Alpha virt. eigenvalues --   -0.00076   0.00622   0.00773   0.01352   0.02004

 Mulliken charges:
               1
     1  C   -0.086284
     2  C   -0.273801
     3  C    0.345683
     4  C   -0.126002
     5  C    0.345683
     6  C   -0.273803
     7  H    0.217733
     8  H    0.217734
     9  C   -0.126002
    10  C    0.345683
    11  C   -0.273803
    12  C   -0.086284
    13  C   -0.273801
    14  C    0.345683
    15  H    0.217734
    16  H    0.217733
    17  C   -0.445753
    18  C   -0.445753
    19  H    0.137454
    20  H    0.137454
    21  C   -0.445753
    22  C   -0.445753
    23  H    0.137454
    24  H    0.137454
    25  B    0.700340
    26  O   -0.422917
    27  B    0.380057
    28  O   -0.422916
    29  B    0.380056
    30  O   -0.327569
    31  H   -0.018698
    32  H   -0.018698
    33  B    0.700340
    34  O   -0.422917
    35  B    0.380057
    36  O   -0.422916
    37  B    0.380056
    38  O   -0.327569
    39  H   -0.018698
    40  H   -0.018698
 Sum of Mulliken charges =  -0.00000

 Dipole moment (field-independent basis, Debye):
    X=              0.0000    Y=              0.0000    Z=             -0.0011  Tot=              0.0011
 Quadrupole moment (field-independent basis, Debye-Ang):
   XX=           -150.8684   YY=           -174.5704   ZZ=           -159.0240
   XY=             -0.0000   XZ=             -0.0000   YZ=             -0.0000

  Exact polarizability:     282.646      -0.000     514.832       0.000      -0.000     134.954
 Approx polarizability:     494.625      -0.000     746.808      -0.000      -0.000     223.826

                      1                      2                      3
                      A                      A                      B
 Frequencies --     19.8954                41.8919                48.1582
 Red. masses --      8.2914                 5.1763                 8.5194
 Frc consts  --      0.0019                 0.0054                 0.0116
 IR Inten    --      0.0110                 0.0000                 0.0000

                      4                      5                      6
                      B                      B                      A
 Frequencies --     50.5617                51.2756                82.0028
 Red. masses --      5.0466                 7.3763                10.9582
 Frc consts  --      0.0076                 0.0114                 0.0434
 IR Inten    --      0.0000                 0.0056                 0.0161

                      7                      8                      9
                      A                      B                      A
 Frequencies --     87.9645               127.7000               160.7573
 Red. masses --      6.3432                10.6195                 4.1873
 Frc consts  --      0.0289                 0.1020                 0.0638
 IR Inten    --      0.0000                 0.0000                 0.0000

                     10                     11                     12
                      A                      A                      B
 Frequencies --    171.2173               175.4469               218.5409
 Red. masses --     10.6797                 5.4101                 2.9923
 Frc consts  --      0.1845                 0.0981                 0.0842
 IR Inten    --      0.0000                 1.9089                 0.0000

                     13                     14                     15
                      A                      A                      B
 Frequencies --    220.3220               231.8479               249.4054
 Red. masses --      3.0563                 4.9502                 7.6629
 Frc consts  --      0.0874                 0.1568                 0.2808
 IR Inten    --      0.0000                 4.3951                 0.0093

                     16                     17                     18
                      B                      B                      B
 Frequencies --    257.6364               266.3505               294.0371
 Red. masses --      3.5228                 9.3763                 3.6254
 Frc consts  --      0.1378                 0.3919                 0.1847
 IR Inten    --      0.0000                 1.3518                 0.0000

                     19                     20                     21
                      A                      A                      B
 Frequencies --    328.4130               329.8643               354.1914
 Red. masses --      6.7358                 2.3027                 3.1316
 Frc consts  --      0.4280                 0.1476                 0.2315
 IR Inten    --      0.0000                 1.0596                 0.0000

                     22                     23                     24
                      A                      A                      A
 Frequencies --    402.5316               472.8089               472.9295
 Red. masses --      3.4558                 9.9408                 7.8091
 Frc consts  --      0.3299                 1.3093                 1.0291
 IR Inten    --      0.0000                 0.0000                 0.0000

                     25                     26                     27
                      B                      B                      B
 Frequencies --    476.5664               510.5743               518.3924
 Red. masses --      5.7639                 5.1108                 4.0888
 Frc consts  --      0.7713                 0.7850                 0.6474
 IR Inten    --      1.9717                13.6817                 0.0000

                     28                     29                     30
                      A                      B                      A
 Frequencies --    530.3660               536.9472               537.0157
 Red. masses --      4.9767                 2.9729                 5.7922
 Frc consts  --      0.8248                 0.5050                 0.9842
 IR Inten    --      3.6439                 0.0000                 0.0000

                     31                     32                     33
                      B                      A                      B
 Frequencies --    549.7239               555.1751               574.8921
 Red. masses --      9.4458                 6.7326                 9.0316
 Frc consts  --      1.6818                 1.2226                 1.7587
 IR Inten    --     27.5476                 0.0000                78.5752

                     34                     35                     36
                      B                      A                      B
 Frequencies --    575.9646               580.6674               591.1661
 Red. masses --      7.2849                 7.8262                 4.2822
 Frc consts  --      1.4239                 1.5547                 0.8817
 IR Inten    --      3.8518                 0.0000                 0.0000

                     37                     38                     39
                      A                      A                      A
 Frequencies --    644.9689               686.4609               707.1948
 Red. masses --      6.2204                 4.3582                 3.8809
 Frc consts  --      1.5246                 1.2100                 1.1436
 IR Inten    --      0.0000                 0.0000                 0.2594

                     40                     41                     42
                      B                      A                      A
 Frequencies --    740.0704               748.0693               787.1273
 Red. masses --      5.5300                 3.4782                 5.8653
 Frc consts  --      1.7845                 1.1468                 2.1411
 IR Inten    --      0.0000                82.6215                 0.0000

                     43                     44                     45
                      B                      B                      A
 Frequencies --    788.2979               800.0316               809.8542
 Red. masses --      6.7262                 6.2036                15.7174
 Frc consts  --      2.4626                 2.3394                 6.0736
 IR Inten    --      6.6514                 0.0000                 0.0000

                     46                     47                     48
                      B                      A                      B
 Frequencies --    809.9060               817.6532               818.6804
 Red. masses --     15.6196                 1.5427                 1.3941
 Frc consts  --      6.0366                 0.6077                 0.5505
 IR Inten    --      9.8632                34.8585                 0.0000

                     49                     50                     51
                      B                      A                      A
 Frequencies --    867.9930               871.1711               919.6258
 Red. masses --      4.8916                 6.6373                 1.6124
 Frc consts  --      2.1714                 2.9679                 0.8034
 IR Inten    --      2.9930                 0.0000                 0.0000

                     52                     53                     54
                      B                      B                      A
 Frequencies --    919.6320               921.4828               921.5853
 Red. masses --      1.6126                 1.8452                 1.8441
 Frc consts  --      0.8035                 0.9231                 0.9228
 IR Inten    --      0.0000                 0.0000               187.7570

                     55                     56                     57
                      B                      A                      A
 Frequencies --    922.4852               929.7094               934.0479
 Red. masses --      1.5102                 1.6097                 1.3820
 Frc consts  --      0.7572                 0.8198                 0.7104
 IR Inten    --      0.0000                61.2613                 0.0000

                     58                     59                     60
                      B                      B                      A
 Frequencies --    944.7510               985.4638               985.7343
 Red. masses --      1.4407                 1.9301                 1.9289
 Frc consts  --      0.7576                 1.1044                 1.1043
 IR Inten    --      0.0000                23.6581                 0.0000

                     61                     62                     63
                      A                      B                      B
 Frequencies --    987.5036               990.7558              1004.3304
 Red. masses --      1.3188                 1.3148                 5.4946
 Frc consts  --      0.7577                 0.7604                 3.2654
 IR Inten    --      0.0000                 0.0000                 0.0030

                     64                     65                     66
                      B                      A                      B
 Frequencies --   1012.1887              1048.2967              1050.6754
 Red. masses --      7.5351                 1.7188                 1.7717
 Frc consts  --      4.5484                 1.1129                 1.1524
 IR Inten    --     20.5466                 0.0000                 4.3947

                     67                     68                     69
                      A                      B                      A
 Frequencies --   1068.8795              1085.4634              1140.3449
 Red. masses --      2.9972                 2.5937                 2.7483
 Frc consts  --      2.0176                 1.8005                 2.1057
 IR Inten    --      0.0000                 0.1826                 0.0000

                     70                     71                     72
                      B                      A                      A
 Frequencies --   1148.3980              1149.0873              1160.9923
 Red. masses --      8.7002                 8.5860                 1.8497
 Frc consts  --      6.7602                 6.6795                 1.4690
 IR Inten    --      0.8956                 0.0000                 0.0000

                     73                     74                     75
                      B                      B                      A
 Frequencies --   1176.3220              1183.4960              1183.9926
 Red. masses --      1.8384                 1.8569                 1.4426
 Frc consts  --      1.4988                 1.5324                 1.1915
 IR Inten    --     25.3883                18.4973                 0.0000

                     76                     77                     78
                      A                      B                      B
 Frequencies --   1188.1389              1193.5134              1238.0040
 Red. masses --      2.6421                 1.8260                 1.8031
 Frc consts  --      2.1975                 1.5325                 1.6282
 IR Inten    --      0.0000                16.6068                 1.9650

                     79                     80                     81
                      A                      B                      A
 Frequencies --   1252.9474              1253.5424              1275.1652
 Red. masses --      2.3162                 1.8330                 1.5089
 Frc consts  --      2.1423                 1.6970                 1.4455
 IR Inten    --      0.0000               592.1650                 0.0000

                     82                     83                     84
                      B                      B                      A
 Frequencies --   1336.8388              1345.0063              1345.6084
 Red. masses --      4.5637                 2.8502                 5.9851
 Frc consts  --      4.8054                 3.0379                 6.3849
 IR Inten    --    404.7693               400.1762                 0.0000

                     85                     86                     87
                      A                      A                      B
 Frequencies --   1355.5398              1363.9132              1366.0977
 Red. masses --      6.3609                 3.1792                 5.9352
 Frc consts  --      6.8864                 3.4845                 6.5261
 IR Inten    --      0.0000                 0.0000               669.3181

                     88                     89                     90
                      B                      A                      A
 Frequencies --   1377.4094              1394.1757              1397.6311
 Red. masses --      6.8138                 7.4511                 2.1462
 Frc consts  --      7.6167                 8.5331                 2.4701
 IR Inten    --   4896.0073                 0.0000                 0.0000

                     91                     92                     93
                      A                      B                      A
 Frequencies --   1403.2656              1409.5872              1441.1696
 Red. masses --      8.3389                 2.9318                 7.3033
 Frc consts  --      9.6747                 3.4321                 8.9372
 IR Inten    --      0.0000               165.5651                 0.0000

                     94                     95                     96
                      B                      B                      A
 Frequencies --   1471.3472              1487.9537              1490.0056
 Red. masses --      4.7148                 6.6044                 3.2388
 Frc consts  --      6.0137                 8.6151                 4.2365
 IR Inten    --      3.2849                10.7922                 0.0000

                     97                     98                     99
                      B                      A                      A
 Frequencies --   1495.3044              1609.8663              1613.5361
 Red. masses --      2.6385                 4.3190                 7.5128
 Frc consts  --      3.4759                 6.5949                11.5242
 IR Inten    --    230.6577                 0.0000                 0.0000

                    100                    101                    102
                      B                      B                      A
 Frequencies --   1628.9962              1639.8572              1667.6558
 Red. masses --      6.1158                 5.5010                 6.8913
 Frc consts  --      9.5618                 8.7157                11.2919
 IR Inten    --     10.5527                68.8993                 0.0000

                    103                    104                    105
                      A                      B                      B
 Frequencies --   2676.9579              2677.0153              2686.0516
 Red. masses --      1.0959                 1.0959                 1.1022
 Frc consts  --      4.6270                 4.6273                 4.6852
 IR Inten    --      0.0000               421.9398               370.4124

                    106                    107                    108
                      A                      A                      B
 Frequencies --   2686.5697              3157.8835              3158.0254
 Red. masses --      1.1023                 1.0865                 1.0865
 Frc consts  --      4.6878                 6.3837                 6.3841
 IR Inten    --      0.0000                 0.0000                 1.4452

                    109                    110                    111
                      B                      A                      A
 Frequencies --   3168.5632              3169.2143              3169.6675
 Red. masses --      1.0899                 1.0895                 1.0914
 Frc consts  --      6.4471                 6.4476                 6.4605
 IR Inten    --      6.4261                 0.0000                 0.0000

                    112                    113                    114
                      B                      B                      A
 Frequencies --   3170.2500              3177.1595              3177.6598
 Red. masses --      1.0910                 1.0960                 1.0957
 Frc consts  --      6.4603                 6.5181                 6.5185
 IR Inten    --      0.4430                45.5249                 0.0000

 - Thermochemistry -
 -------------------
 Temperature   298.150 Kelvin.  Pressure   1.00000 Atm.
 Atom     1 has atomic number  6 and mass  12.00000

 Molecular mass:   366.11922 amu.
 Principal axes and moments of inertia in atomic units:
                           1         2         3
     Eigenvalues --  2406.29548********************
           X            0.00000   1.00000   0.00000
           Y            1.00000  -0.00000   0.00000
           Z            0.00000   0.00000   1.00000
 This molecule is an asymmetric top.
 Rotational symmetry number  2.
 Warning -- assumption of classical behavior for rotation
           may cause significant error
 Rotational temperatures (Kelvin)      0.03599     0.00301     0.00278
 Rotational constants (GHZ):           0.75001     0.06273     0.05788
 Zero-point vibrational energy     732371.9 (Joules/Mol)
                                  175.04108 (Kcal/Mol)
 Warning -- explicit consideration of  36 degrees of freedom as
           vibrations may cause significant error
 Vibrational temperatures:     28.62    60.27    69.29    72.75    73.77
          (Kelvin)            117.98   126.56   183.73   231.29   246.34
                              252.43   314.43   316.99   333.58   358.84
                              370.68   383.22   423.05   472.51   474.60
                              509.60   579.15   680.27   680.44   685.67
                              734.60   745.85   763.08   772.55   772.65
                              790.93   798.77   827.14   828.68   835.45
                              850.56   927.97   987.66  1017.50  1064.80
                             1076.30  1132.50  1134.18  1151.07  1165.20
                             1165.27  1176.42  1177.90  1248.85  1253.42
                             1323.14  1323.15  1325.81  1325.96  1327.25
                             1337.64  1343.89  1359.29  1417.86  1418.25
                             1420.80  1425.48  1445.01  1456.31  1508.27
                             1511.69  1537.88  1561.74  1640.70  1652.29
                             1653.28  1670.41  1692.47  1702.79  1703.50
                             1709.47  1717.20  1781.21  1802.71  1803.57
                             1834.68  1923.41  1935.16  1936.03  1950.32
                             1962.37  1965.51  1981.78  2005.91  2010.88
                             2018.99  2028.08  2073.52  2116.94  2140.83
                             2143.79  2151.41  2316.24  2321.52  2343.76
                             2359.39  2399.38  3851.55  3851.63  3864.63
                             3865.37  4543.49  4543.69  4558.86  4559.79
                             4560.44  4561.28  4571.22  4571.94

 Zero-point correction=                           0.278946 (Hartree/Particle)
 Thermal correction to Energy=                    0.300067
 Thermal correction to Enthalpy=                  0.301011
 Thermal correction to Gibbs Free Energy=         0.228105
 Sum of electronic and zero-point Energies=          -1218.119899
 Sum of electronic and thermal Energies=             -1218.098778
 Sum of electronic and thermal Enthalpies=           -1218.097834
 Sum of electronic and thermal Free Energies=        -1218.170740

                     E (Thermal)             CV                S
                      KCal/Mol        Cal/Mol-Kelvin    Cal/Mol-Kelvin
 Total                  188.295             84.016            153.443
 Electronic               0.000              0.000              0.000
 Translational            0.889              2.981             43.586
 Rotational               0.889              2.981             34.644
 Vibrational            186.517             78.054             75.212
 Vibration     1          0.593              1.986              6.645
 Vibration     2          0.595              1.980              5.168
 Vibration     3          0.595              1.978              4.892
 Vibration     4          0.595              1.977              4.795
 Vibration     5          0.596              1.977              4.768
 Vibration     6          0.600              1.961              3.842
 Vibration     7          0.601              1.958              3.705
 Vibration     8          0.611              1.925              2.980
 Vibration     9          0.622              1.890              2.541
 Vibration    10          0.626              1.878              2.422
 Vibration    11          0.627              1.873              2.376
 Vibration    12          0.646              1.813              1.971
 Vibration    13          0.647              1.810              1.956
 Vibration    14          0.653              1.792              1.865
 Vibration    15          0.662              1.764              1.735
 Vibration    16          0.667              1.750              1.678
 Vibration    17          0.672              1.735              1.620
 Vibration    18          0.689              1.685              1.451
 Vibration    19          0.712              1.619              1.268
 Vibration    20          0.713              1.616              1.261
 Vibration    21          0.730              1.567              1.147
 Vibration    22          0.768              1.465              0.953
 Vibration    23          0.830              1.310              0.730
 Vibration    24          0.830              1.310              0.729
 Vibration    25          0.833              1.302              0.719
 Vibration    26          0.866              1.227              0.632
 Vibration    27          0.873              1.209              0.614
 Vibration    28          0.885              1.183              0.586
 Vibration    29          0.892              1.168              0.572
 Vibration    30          0.892              1.168              0.572
 Vibration    31          0.905              1.140              0.545
 Vibration    32          0.911              1.128              0.534
 Vibration    33          0.931              1.086              0.495
 Vibration    34          0.932              1.083              0.493
 Vibration    35          0.937              1.073              0.484
 Vibration    36          0.949              1.051              0.465

 Optimization completed.
    -- Stationary point found.
 Normal termination of Gaussian 16 at Sat Aug 15 08:43:57 2020.
