 Gaussian 16, Revision C.01,
 Gaussian 16:  ES64L-G16RevC.01  3-Jul-2019

 --------------------------------------------------------------------
 #P B3LYP/6-311++G(d,p) EmpiricalDispersion=GD3 freq(noraman) SCF=YQC
 --------------------------------------------------------------------

 -------------------------------------------
 Restart from F_BoronicAcid_Borosilicate.log
 -------------------------------------------
 Symbolic Z-matrix:
 Charge =  0 Multiplicity = 1

                         Standard orientation:
 ---------------------------------------------------------------------
 Center     Atomic      Atomic             Coordinates (Angstroms)
 Number     Number       Type             X           Y           Z
 ---------------------------------------------------------------------
      1          9           0        1.322444    2.372799    0.004095
      2          6           0        0.694420    1.183316   -0.007026
      3          6           0       -0.694405    1.183351    0.005705
      4          9           0       -1.322363    2.372850   -0.005429
      5          6           0       -1.433907    0.000025   -0.000657
      6          6           0       -0.694420   -1.183305   -0.007028
      7          9           0       -1.322444   -2.372787    0.004090
      8          6           0        0.694405   -1.183339    0.005706
      9          9           0        1.322364   -2.372837   -0.005425
     10          6           0        1.433907   -0.000013   -0.000653
     11          5           0       -3.010071    0.000024   -0.000484
     12          8           0       -3.664482    0.965454    0.705206
     13          8           0       -3.664785   -0.965213   -0.706123
     14         14           0       -5.222299    1.436311    1.005102
     15         14           0       -5.222760   -1.436347   -1.004602
     16          8           0       -5.982055    1.752348   -0.427109
     17          8           0       -6.009266    0.215195    1.793397
     18          1           0       -5.216426    2.631767    1.834625
     19          8           0       -5.981339   -1.752324    0.428209
     20          8           0       -6.010595   -0.215299   -1.792149
     21          1           0       -5.217446   -2.631873   -1.834023
     22          5           0       -6.327330    1.098508   -1.578393
     23          1           0       -6.921133    1.690996   -2.419782
     24          5           0       -6.326341   -1.098550    1.579578
     25          1           0       -6.919996   -1.690992    2.421099
     26          5           0        3.010071   -0.000014   -0.000474
     27          8           0        3.664478   -0.965448    0.705213
     28          8           0        3.664789    0.965218   -0.706118
     29         14           0        5.222293   -1.436314    1.005103
     30         14           0        5.222765    1.436341   -1.004604
     31          8           0        5.982043   -1.752357   -0.427110
     32          8           0        6.009270   -0.215203    1.793395
     33          1           0        5.216416   -2.631770    1.834627
     34          8           0        5.981350    1.752316    0.428205
     35          8           0        6.010591    0.215288   -1.792152
     36          1           0        5.217456    2.631866   -1.834027
     37          5           0        6.327320   -1.098521   -1.578395
     38          1           0        6.921115   -1.691014   -2.419786
     39          5           0        6.326352    1.098541    1.579573
     40          1           0        6.920015    1.690980    2.421091
 ---------------------------------------------------------------------

 SCF Done:  E(RB3LYP) =  -2844.40944101     a.u. after    7 cycles
 SCF Done:  E(RB3LYP) =  -2844.40944708     A.U. after    9 cycles

 The electronic state is 1-A.
 Alpha  occ. eigenvalues --  -66.19812 -66.19812 -66.19811 -66.19811 -24.71480
 Alpha  occ. eigenvalues --  -24.71479 -24.71479 -24.71479 -19.16007 -19.16007
 Alpha  occ. eigenvalues --  -19.16006 -19.16006 -19.15758 -19.15758 -19.15757
 Alpha  occ. eigenvalues --  -19.15757 -19.15738 -19.15738 -19.15738 -19.15738
 Alpha  occ. eigenvalues --  -10.29568 -10.29566 -10.29512 -10.29511 -10.21116
 Alpha  occ. eigenvalues --  -10.21115  -6.84343  -6.84342  -6.82547  -6.82547
 Alpha  occ. eigenvalues --   -6.82546  -6.82546  -5.36309  -5.36309  -5.36308
 Alpha  occ. eigenvalues --   -5.36308  -3.72306  -3.72306  -3.72306  -3.72306
 Alpha  occ. eigenvalues --   -3.72294  -3.72294  -3.72293  -3.72293  -3.71944
 Alpha  occ. eigenvalues --   -3.71944  -3.71943  -3.71943  -1.26423  -1.26364
 Alpha  occ. eigenvalues --   -1.24911  -1.24874  -1.08217  -1.08216  -1.05346
 Alpha  occ. eigenvalues --   -1.05345  -1.04974  -1.04973  -1.04764  -1.04763
 Alpha  occ. eigenvalues --   -1.01966  -1.01965  -1.01624  -1.01623  -0.90663
 Alpha  occ. eigenvalues --   -0.80097  -0.78304  -0.69321  -0.66220  -0.66181
 Alpha  occ. eigenvalues --   -0.65669  -0.63309  -0.63053  -0.60794  -0.59897
 Alpha  occ. eigenvalues --   -0.59350  -0.59337  -0.58838  -0.57867  -0.57775
 Alpha  occ. eigenvalues --   -0.55590  -0.55256  -0.54928  -0.54928  -0.54669
 Alpha  occ. eigenvalues --   -0.52211  -0.51073  -0.50985  -0.50713  -0.50342
 Alpha  occ. eigenvalues --   -0.48096  -0.47808  -0.47625  -0.47431  -0.46811
 Alpha  occ. eigenvalues --   -0.46797  -0.45895  -0.45380  -0.45074  -0.45048
 Alpha  occ. eigenvalues --   -0.44632  -0.44086  -0.44078  -0.43551  -0.42378
 Alpha  occ. eigenvalues --   -0.41958  -0.41344  -0.40948  -0.40939  -0.40236
 Alpha  occ. eigenvalues --   -0.39889  -0.39841  -0.39724  -0.39682  -0.39569
 Alpha  occ. eigenvalues --   -0.38168  -0.37299  -0.36685  -0.36684  -0.35920
 Alpha  occ. eigenvalues --   -0.35701  -0.35566  -0.35523  -0.35510  -0.35208
 Alpha  occ. eigenvalues --   -0.34916  -0.34867  -0.34755  -0.34710  -0.29346
 Alpha  occ. eigenvalues --   -0.26574
 Alpha virt. eigenvalues --   -0.08704  -0.02942  -0.02937  -0.02722  -0.02615
 Alpha virt. eigenvalues --   -0.01736  -0.01032  -0.00335   0.00164   0.00466
 Alpha virt. eigenvalues --    0.00559   0.00648   0.00935   0.01402   0.01407

 Mulliken charges:
               1
     1  F   -0.125086
     2  C   -0.518086
     3  C   -0.518293
     4  F   -0.125066
     5  C    0.952458
     6  C   -0.518070
     7  F   -0.125086
     8  C   -0.518281
     9  F   -0.125066
    10  C    0.952459
    11  B    0.826875
    12  O   -0.352622
    13  O   -0.352416
    14  Si   0.304685
    15  Si   0.304865
    16  O   -0.278209
    17  O   -0.282218
    18  H   -0.201231
    19  O   -0.278357
    20  O   -0.282399
    21  H   -0.201180
    22  B    0.524013
    23  H    0.039147
    24  B    0.523997
    25  H    0.039110
    26  B    0.826875
    27  O   -0.352621
    28  O   -0.352415
    29  Si   0.304683
    30  Si   0.304864
    31  O   -0.278208
    32  O   -0.282218
    33  H   -0.201231
    34  O   -0.278357
    35  O   -0.282399
    36  H   -0.201180
    37  B    0.524012
    38  H    0.039148
    39  B    0.523997
    40  H    0.039110
 Sum of Mulliken charges =  -0.00000

 Dipole moment (field-independent basis, Debye):
    X=             -0.0000    Y=             -0.0000    Z=              0.0001  Tot=              0.0001
 Quadrupole moment (field-independent basis, Debye-Ang):
   XX=           -201.0889   YY=           -214.5584   ZZ=           -205.4719
   XY=              0.0110   XZ=             -0.0000   YZ=              0.0000

  Exact polarizability:     314.177       0.001     244.309       0.000       0.000     199.175
 Approx polarizability:     362.876       0.002     375.949       0.000       0.000     276.895

                      1                      2                      3
                      A                      A                      A
 Frequencies --     15.3057                17.4610                18.0887
 Red. masses --      9.6151                 8.1189                12.8653
 Frc consts  --      0.0013                 0.0015                 0.0025
 IR Inten    --      0.0140                 0.0000                 0.3998

                      4                      5                      6
                      A                      A                      A
 Frequencies --     21.7178                41.9926                43.7740
 Red. masses --      9.0110                10.3262                10.0368
 Frc consts  --      0.0025                 0.0107                 0.0113
 IR Inten    --      0.0109                 0.0883                 0.0373

                      7                      8                      9
                      A                      A                      A
 Frequencies --     77.2120                77.2466                84.4269
 Red. masses --     15.9619                15.7363                11.2708
 Frc consts  --      0.0561                 0.0553                 0.0473
 IR Inten    --      0.2558                 0.0000                 0.2594

                     10                     11                     12
                      A                      A                      A
 Frequencies --     97.3160                97.6649               104.1226
 Red. masses --     13.4404                14.2579                13.3587
 Frc consts  --      0.0750                 0.0801                 0.0853
 IR Inten    --      0.0000                 0.1321                 0.0285

                     13                     14                     15
                      A                      A                      A
 Frequencies --    105.4413               121.7143               122.4505
 Red. masses --      7.6273                12.3215                18.1354
 Frc consts  --      0.0500                 0.1075                 0.1602
 IR Inten    --      0.0000                 0.7114                 0.0000

                     16                     17                     18
                      A                      A                      A
 Frequencies --    130.8745               148.8885               171.0569
 Red. masses --     14.5149                 3.2557                 8.5245
 Frc consts  --      0.1465                 0.0425                 0.1470
 IR Inten    --      0.1289                 2.1341                 0.1787

                     19                     20                     21
                      A                      A                      A
 Frequencies --    176.4718               192.4033               206.7862
 Red. masses --      3.2337                 6.1376                 3.4066
 Frc consts  --      0.0593                 0.1339                 0.0858
 IR Inten    --      0.0000                 0.3269                 1.1002

                     22                     23                     24
                      A                      A                      A
 Frequencies --    208.0620               222.1873               247.7580
 Red. masses --      4.1112                 7.8567                13.3948
 Frc consts  --      0.1049                 0.2285                 0.4844
 IR Inten    --      0.0041                 0.2193                 0.8854

                     25                     26                     27
                      A                      A                      A
 Frequencies --    308.8453               318.6593               322.4832
 Red. masses --     17.4033                13.6681                13.1350
 Frc consts  --      0.9781                 0.8177                 0.8048
 IR Inten    --      0.0000                 2.2329                 0.5965

                     28                     29                     30
                      A                      A                      A
 Frequencies --    323.9778               324.8290               333.8225
 Red. masses --     12.8451                13.6337                12.0581
 Frc consts  --      0.7944                 0.8476                 0.7917
 IR Inten    --      0.0555                 0.0000                 0.4904

                     31                     32                     33
                      A                      A                      A
 Frequencies --    336.8728               337.0020               341.1208
 Red. masses --      6.9935                 8.4803                11.8181
 Frc consts  --      0.4676                 0.5674                 0.8102
 IR Inten    --     29.0135                 7.4589                 0.8299

                     34                     35                     36
                      A                      A                      A
 Frequencies --    345.9389               367.3508               382.1456
 Red. masses --      9.5037                 5.9752                10.9048
 Frc consts  --      0.6701                 0.4751                 0.9383
 IR Inten    --      0.0000               106.3189                 0.2561

                     37                     38                     39
                      A                      A                      A
 Frequencies --    383.2241               424.2452               435.6443
 Red. masses --      5.8990                12.6135                12.0604
 Frc consts  --      0.5104                 1.3376                 1.3486
 IR Inten    --      0.0000                 5.6894                19.4738

                     40                     41                     42
                      A                      A                      A
 Frequencies --    443.2435               445.8902               446.2082
 Red. masses --     14.4356                14.2067                15.5640
 Frc consts  --      1.6710                 1.6642                 1.8258
 IR Inten    --     86.4446               201.6830                 6.6632

                     43                     44                     45
                      A                      A                      A
 Frequencies --    500.4304               543.2982               569.3689
 Red. masses --     16.2334                11.4635                 8.2131
 Frc consts  --      2.3952                 1.9936                 1.5687
 IR Inten    --      0.0000                14.7135                30.2938

                     46                     47                     48
                      A                      A                      A
 Frequencies --    569.9463               580.6327               582.4627
 Red. masses --      8.4029                 7.9705                 7.6506
 Frc consts  --      1.6082                 1.5832                 1.5293
 IR Inten    --     66.3329               273.4452                 0.0000

                     49                     50                     51
                      A                      A                      A
 Frequencies --    597.1019               597.7199               649.1699
 Red. masses --     15.2059                15.1388                11.6279
 Frc consts  --      3.1942                 3.1867                 2.8872
 IR Inten    --      0.0000                 3.4578                10.7623

                     52                     53                     54
                      A                      A                      A
 Frequencies --    680.3483               697.4999               710.6982
 Red. masses --     10.3592                12.1917                 5.6144
 Frc consts  --      2.8251                 3.4947                 1.6708
 IR Inten    --     34.7089                 0.0000                32.4769

                     55                     56                     57
                      A                      A                      A
 Frequencies --    718.7772               720.0051               738.4076
 Red. masses --      5.9841                11.1407                 7.4697
 Frc consts  --      1.8215                 3.4028                 2.3996
 IR Inten    --      0.5333                21.6662                 0.0000

                     58                     59                     60
                      A                      A                      A
 Frequencies --    744.0223               759.1996               759.9298
 Red. masses --      4.9982                 4.3339                 5.3936
 Frc consts  --      1.6302                 1.4718                 1.8352
 IR Inten    --      0.1145                 0.1548                 0.0113

                     61                     62                     63
                      A                      A                      A
 Frequencies --    764.7774               769.5798               770.6236
 Red. masses --      4.7863                 5.6378                 4.5779
 Frc consts  --      1.6494                 1.9673                 1.6018
 IR Inten    --      4.3844                21.8632                 0.0031

                     64                     65                     66
                      A                      A                      A
 Frequencies --    777.3560               777.3890               825.7618
 Red. masses --      4.3684                 4.3628                 1.1515
 Frc consts  --      1.5553                 1.5534                 0.4626
 IR Inten    --      0.2715                 0.0000                 0.0001

                     67                     68                     69
                      A                      A                      A
 Frequencies --    825.7829               828.2145               828.2532
 Red. masses --      1.1512                 1.1703                 1.1979
 Frc consts  --      0.4625                 0.4730                 0.4842
 IR Inten    --      0.1237                 0.2138                 0.0035

                     70                     71                     72
                      A                      A                      A
 Frequencies --    837.9178               862.7226               870.8664
 Red. masses --      8.8808                 8.4209                 1.3025
 Frc consts  --      3.6737                 3.6928                 0.5820
 IR Inten    --      0.9328                 2.9512               979.6137

                     73                     74                     75
                      A                      A                      A
 Frequencies --    883.1571               883.4462               883.8406
 Red. masses --      1.3991                 1.4354                 1.4364
 Frc consts  --      0.6429                 0.6601                 0.6611
 IR Inten    --      0.1421               187.8784               440.3093

                     76                     77                     78
                      A                      A                      A
 Frequencies --    915.7848               915.8695               921.7169
 Red. masses --      1.6565                 1.6574                 1.6877
 Frc consts  --      0.8185                 0.8191                 0.8448
 IR Inten    --     14.7182                38.3727                88.0617

                     79                     80                     81
                      A                      A                      A
 Frequencies --    922.3385               949.9031               973.0641
 Red. masses --      1.6778                12.4962                13.6158
 Frc consts  --      0.8409                 6.6433                 7.5958
 IR Inten    --      0.0000               350.2462               186.8159

                     82                     83                     84
                      A                      A                      A
 Frequencies --   1058.6613              1119.5370              1145.2195
 Red. masses --     13.7417                13.5786                 1.2239
 Frc consts  --      9.0741                10.0272                 0.9458
 IR Inten    --      0.0000                 2.0718                 0.8940

                     85                     86                     87
                      A                      A                      A
 Frequencies --   1145.2206              1147.9071              1147.9077
 Red. masses --      1.2240                 1.2804                 1.2804
 Frc consts  --      0.9458                 0.9940                 0.9941
 IR Inten    --      0.1854                 0.1315                 0.0005

                     88                     89                     90
                      A                      A                      A
 Frequencies --   1211.9683              1232.9689              1233.2382
 Red. masses --     12.0796                10.3448                10.3547
 Frc consts  --     10.4541                 9.2656                 9.2786
 IR Inten    --   1579.7008               403.2126               842.9918

                     91                     92                     93
                      A                      A                      A
 Frequencies --   1236.0394              1236.1274              1268.7336
 Red. masses --     10.4342                10.7283                 6.6525
 Frc consts  --      9.3923                 9.6585                 6.3092
 IR Inten    --      0.0219               294.5316                 4.1289

                     94                     95                     96
                      A                      A                      A
 Frequencies --   1268.7776              1286.9116              1290.1985
 Red. masses --      6.6531                 8.3067                 8.2515
 Frc consts  --      6.3103                 8.1055                 8.0927
 IR Inten    --      0.0021                76.1625                16.5375

                     97                     98                     99
                      A                      A                      A
 Frequencies --   1305.5436              1319.6465              1331.9282
 Red. masses --     11.9905                12.2055                12.0659
 Frc consts  --     12.0412                12.5234                12.6116
 IR Inten    --     11.6776                 0.0003              1680.2075

                    100                    101                    102
                      A                      A                      A
 Frequencies --   1381.6489              1418.4464              1431.9854
 Red. masses --     12.7047                11.1716                11.0253
 Frc consts  --     14.2892                13.2432                13.3204
 IR Inten    --      0.0000               853.1646              1130.6117

                    103                    104                    105
                      A                      A                      A
 Frequencies --   1463.3511              1480.0508              1587.0661
 Red. masses --     12.0229                11.9857                12.0037
 Frc consts  --     15.1690                15.4692                17.8138
 IR Inten    --    168.6067              1691.4000                 8.2261

                    106                    107                    108
                      A                      A                      A
 Frequencies --   1674.2743              2396.4100              2396.4545
 Red. masses --     12.0204                 1.0424                 1.0424
 Frc consts  --     19.8529                 3.5269                 3.5271
 IR Inten    --      0.0000                93.6754               185.0942

                    109                    110                    111
                      A                      A                      A
 Frequencies --   2397.5836              2397.7143              2660.9384
 Red. masses --      1.0429                 1.0430                 1.0946
 Frc consts  --      3.5323                 3.5328                 4.5663
 IR Inten    --      2.1115                 0.0038               167.8263

                    112                    113                    114
                      A                      A                      A
 Frequencies --   2660.9722              2663.8257              2664.1578
 Red. masses --      1.0946                 1.0960                 1.0961
 Frc consts  --      4.5665                 4.5820                 4.5837
 IR Inten    --    346.5099               238.9318                 0.0066

 - Thermochemistry -
 -------------------
 Temperature   298.150 Kelvin.  Pressure   1.00000 Atm.
 Atom     1 has atomic number  9 and mass  18.99840

 Molecular mass:   525.95873 amu.
 Principal axes and moments of inertia in atomic units:
                           1         2         3
     Eigenvalues --  5666.40468********************
           X            1.00000   0.00000  -0.00000
           Y           -0.00000   1.00000  -0.00000
           Z            0.00000   0.00000   1.00000
 This molecule is an asymmetric top.
 Rotational symmetry number  1.
 Warning -- assumption of classical behavior for rotation
           may cause significant error
 Rotational temperatures (Kelvin)      0.01529     0.00211     0.00201
 Rotational constants (GHZ):           0.31850     0.04398     0.04191
 Zero-point vibrational energy     548731.4 (Joules/Mol)
                                  131.14995 (Kcal/Mol)
 Warning -- explicit consideration of  50 degrees of freedom as
           vibrations may cause significant error
 Vibrational temperatures:     22.02    25.12    26.03    31.25    60.42
          (Kelvin)             62.98   111.09   111.14   121.47   140.02
                              140.52   149.81   151.71   175.12   176.18
                              188.30   214.22   246.11   253.90   276.83
                              297.52   299.35   319.68   356.47   444.36
                              458.48   463.98   466.13   467.36   480.30
                              484.68   484.87   490.80   497.73   528.54
                              549.82   551.37   610.39   626.79   637.73
                              641.54   641.99   720.01   781.68   819.19
                              820.03   835.40   838.03   859.10   859.99
                              934.01   978.87  1003.55  1022.54  1034.16
                             1035.93  1062.40  1070.48  1092.32  1093.37
                             1100.34  1107.25  1108.76  1118.44  1118.49
                             1188.09  1188.12  1191.62  1191.67  1205.58
                             1241.27  1252.98  1270.67  1271.08  1271.65
                             1317.61  1317.73  1326.15  1327.04  1366.70
                             1400.02  1523.18  1610.76  1647.72  1647.72
                             1651.58  1651.58  1743.75  1773.97  1774.35
                             1778.38  1778.51  1825.42  1825.49  1851.58
                             1856.31  1878.39  1898.68  1916.35  1987.88
                             2040.83  2060.31  2105.44  2129.46  2283.43
                             2408.91  3447.90  3447.96  3449.59  3449.78
                             3828.50  3828.55  3832.65  3833.13

 Zero-point correction=                           0.209001 (Hartree/Particle)
 Thermal correction to Energy=                    0.239410
 Thermal correction to Enthalpy=                  0.240355
 Thermal correction to Gibbs Free Energy=         0.143831
 Sum of electronic and zero-point Energies=          -2844.200446
 Sum of electronic and thermal Energies=             -2844.170037
 Sum of electronic and thermal Enthalpies=           -2844.169093
 Sum of electronic and thermal Free Energies=        -2844.265616

                     E (Thermal)             CV                S
                      KCal/Mol        Cal/Mol-Kelvin    Cal/Mol-Kelvin
 Total                  150.232            112.526            203.152
 Electronic               0.000              0.000              0.000
 Translational            0.889              2.981             44.666
 Rotational               0.889              2.981             37.546
 Vibrational            148.455            106.564            120.939
 Vibration     1          0.593              1.986              7.165
 Vibration     2          0.593              1.986              6.904
 Vibration     3          0.593              1.986              6.834
 Vibration     4          0.593              1.985              6.471
 Vibration     5          0.595              1.980              5.163
 Vibration     6          0.595              1.980              5.081
 Vibration     7          0.599              1.964              3.961
 Vibration     8          0.599              1.964              3.960
 Vibration     9          0.601              1.960              3.785
 Vibration    10          0.603              1.951              3.507
 Vibration    11          0.603              1.951              3.500
 Vibration    12          0.605              1.946              3.376
 Vibration    13          0.605              1.945              3.351
 Vibration    14          0.609              1.931              3.073
 Vibration    15          0.610              1.930              3.061
 Vibration    16          0.612              1.922              2.933
 Vibration    17          0.618              1.904              2.686
 Vibration    18          0.626              1.878              2.424
 Vibration    19          0.628              1.871              2.365
 Vibration    20          0.634              1.850              2.205
 Vibration    21          0.641              1.830              2.072
 Vibration    22          0.641              1.828              2.061
 Vibration    23          0.648              1.807              1.941
 Vibration    24          0.661              1.766              1.746
 Vibration    25          0.698              1.657              1.369
 Vibration    26          0.705              1.638              1.317
 Vibration    27          0.707              1.630              1.297
 Vibration    28          0.709              1.627              1.290
 Vibration    29          0.709              1.626              1.286
 Vibration    30          0.715              1.608              1.242
 Vibration    31          0.718              1.602              1.227
 Vibration    32          0.718              1.602              1.226
 Vibration    33          0.721              1.593              1.207
 Vibration    34          0.724              1.584              1.185
 Vibration    35          0.740              1.539              1.091
 Vibration    36          0.752              1.508              1.031
 Vibration    37          0.752              1.506              1.026
 Vibration    38          0.786              1.418              0.878
 Vibration    39          0.796              1.393              0.840
 Vibration    40          0.803              1.376              0.816
 Vibration    41          0.805              1.370              0.808
 Vibration    42          0.805              1.369              0.807
 Vibration    43          0.856              1.249              0.657
 Vibration    44          0.898              1.154              0.558
 Vibration    45          0.925              1.098              0.505
 Vibration    46          0.926              1.096              0.504
 Vibration    47          0.937              1.073              0.484
 Vibration    48          0.939              1.069              0.481
 Vibration    49          0.955              1.038              0.455
 Vibration    50          0.956              1.037              0.454

 Optimization completed.
    -- Stationary point found.
 Normal termination of Gaussian 16 at Mon Aug  3 23:48:30 2020.
