 Gaussian 16, Revision C.01,
 Gaussian 16:  ES64L-G16RevC.01  3-Jul-2019

 --------------------------------------------------------------------
 #P B3LYP/6-311++G(d,p) EmpiricalDispersion=GD3 freq(noraman) SCF=YQC
 --------------------------------------------------------------------

 ----------------------------------------------
 Restart from 3_Phenyl_AmineBorane_Borazine.log
 ----------------------------------------------
 Symbolic Z-matrix:
 Charge =  0 Multiplicity = 1

                         Standard orientation:
 ---------------------------------------------------------------------
 Center     Atomic      Atomic             Coordinates (Angstroms)
 Number     Number       Type             X           Y           Z
 ---------------------------------------------------------------------
      1          6           0       -0.532402    1.290565   -0.000255
      2          6           0       -1.381315    0.183616   -0.000205
      3          6           0       -0.851196   -1.106711   -0.000242
      4          6           0        0.531896   -1.288453   -0.000245
      5          6           0        1.384307   -0.184188   -0.000278
      6          6           0        0.850117    1.104469   -0.000358
      7          1           0        0.944639   -2.288709   -0.000157
      8          1           0        1.509974    1.962056   -0.000323
      9          1           0       -2.453945    0.326220   -0.000187
     10          7           0       -1.079174    2.615133   -0.000021
     11          5           0       -0.645258    3.570050   -0.989283
     12          5           0       -2.060362    2.985239    0.989460
     13          1           0        0.153737    3.265660   -1.815815
     14          7           0       -1.208779    4.882509   -0.957953
     15          1           0       -2.411692    2.205435    1.815695
     16          7           0       -2.587656    4.312652    0.958291
     17          5           0       -2.186153    5.294415    0.000216
     18          1           0       -0.907698    5.543379   -1.658221
     19          1           0       -3.267489    4.568130    1.658528
     20          1           0       -2.641237    6.395489    0.000203
     21          7           0        2.804814   -0.372964   -0.000084
     22          5           0        3.414698   -1.226315   -0.989329
     23          5           0        3.615990    0.291646    0.989387
     24          1           0        2.751467   -1.766057   -1.815768
     25          7           0        4.833059   -1.394734   -0.957961
     26          1           0        3.116326    0.985506    1.815883
     27          7           0        5.029173    0.084293    0.958302
     28          5           0        5.678545   -0.754351    0.000204
     29          1           0        5.254776   -1.986055   -1.658153
     30          1           0        5.590389    0.545059    1.658662
     31          1           0        6.859612   -0.911027    0.000280
     32          7           0       -1.725033   -2.242441   -0.000259
     33          5           0       -2.769023   -2.343546   -0.989514
     34          5           0       -1.555483   -3.277275    0.989243
     35          1           0       -2.904648   -1.499133   -1.815815
     36          7           0       -3.624702   -3.487181   -0.957979
     37          1           0       -0.704615   -3.191896    1.815648
     38          7           0       -2.442250   -4.396986    0.958305
     39          5           0       -3.493391   -4.539537    0.000307
     40          1           0       -4.347741   -3.556408   -1.658118
     41          1           0       -2.324133   -5.113415    1.658699
     42          1           0       -4.220138   -5.483625    0.000529
 ---------------------------------------------------------------------

 SCF Done:  E(RB3LYP) =  -956.950148756     a.u. after    7 cycles
 SCF Done:  E(RB3LYP) =  -956.950155257     A.U. after    7 cycles

 The electronic state is 1-A.
 Alpha  occ. eigenvalues --  -14.31351 -14.31351 -14.31350 -14.30274 -14.30274
 Alpha  occ. eigenvalues --  -14.30274 -14.30274 -14.30274 -14.30273 -10.21533
 Alpha  occ. eigenvalues --  -10.21532 -10.21532 -10.16912 -10.16912 -10.16911
 Alpha  occ. eigenvalues --   -6.74908  -6.74908  -6.74908  -6.74907  -6.74907
 Alpha  occ. eigenvalues --   -6.74907  -6.74882  -6.74882  -6.74882  -0.93058
 Alpha  occ. eigenvalues --   -0.91720  -0.91720  -0.88582  -0.87485  -0.87485
 Alpha  occ. eigenvalues --   -0.84878  -0.84878  -0.84878  -0.81132  -0.72964
 Alpha  occ. eigenvalues --   -0.72964  -0.61931  -0.61931  -0.57415  -0.55403
 Alpha  occ. eigenvalues --   -0.54985  -0.54985  -0.54273  -0.54035  -0.54035
 Alpha  occ. eigenvalues --   -0.51784  -0.51784  -0.50334  -0.48586  -0.45789
 Alpha  occ. eigenvalues --   -0.45572  -0.45572  -0.45296  -0.44783  -0.44783
 Alpha  occ. eigenvalues --   -0.44772  -0.43497  -0.43496  -0.39955  -0.39955
 Alpha  occ. eigenvalues --   -0.39757  -0.38497  -0.38497  -0.37440  -0.36961
 Alpha  occ. eigenvalues --   -0.36961  -0.35896  -0.33691  -0.33584  -0.33584
 Alpha  occ. eigenvalues --   -0.33172  -0.33126  -0.33126  -0.30691  -0.30690
 Alpha  occ. eigenvalues --   -0.29181  -0.29181  -0.29178  -0.27347  -0.23470
 Alpha  occ. eigenvalues --   -0.23469
 Alpha virt. eigenvalues --   -0.02000  -0.01999  -0.00778  -0.00744  -0.00431
 Alpha virt. eigenvalues --   -0.00430  -0.00349  -0.00035  -0.00035   0.00430
 Alpha virt. eigenvalues --    0.00431   0.00698   0.01148   0.01149   0.02082

 Mulliken charges:
               1
     1  C    0.223318
     2  C   -0.332871
     3  C    0.223404
     4  C   -0.332542
     5  C    0.223227
     6  C   -0.332652
     7  H    0.212902
     8  H    0.212919
     9  H    0.213069
    10  N   -0.387473
    11  B    0.292785
    12  B    0.292694
    13  H   -0.069431
    14  N   -0.502987
    15  H   -0.069397
    16  N   -0.502992
    17  B    0.341110
    18  H    0.278296
    19  H    0.278297
    20  H   -0.054593
    21  N   -0.387325
    22  B    0.292787
    23  B    0.292757
    24  H   -0.069428
    25  N   -0.502900
    26  H   -0.069444
    27  N   -0.502931
    28  B    0.341004
    29  H    0.278289
    30  H    0.278289
    31  H   -0.054614
    32  N   -0.387298
    33  B    0.292771
    34  B    0.292651
    35  H   -0.069394
    36  N   -0.502938
    37  H   -0.069400
    38  N   -0.503018
    39  B    0.341059
    40  H    0.278306
    41  H    0.278297
    42  H   -0.054605
 Sum of Mulliken charges =   0.00000

 Dipole moment (field-independent basis, Debye):
    X=             -0.0006    Y=              0.0004    Z=              0.0005  Tot=              0.0009
 Quadrupole moment (field-independent basis, Debye-Ang):
   XX=           -129.9272   YY=           -129.9312   ZZ=           -139.2738
   XY=             -0.0006   XZ=             -0.0003   YZ=             -0.0012

  Exact polarizability:     294.182       0.001     294.140      -0.005      -0.008     185.456
 Approx polarizability:     387.613      -0.001     387.582      -0.005      -0.009     286.375

                      1                      2                      3
                      A                      A                      A
 Frequencies --     39.7272                40.2583                44.1291
 Red. masses --      3.9561                 3.9629                 3.9226
 Frc consts  --      0.0037                 0.0038                 0.0045
 IR Inten    --      0.3642                 0.3767                 0.0256

                      4                      5                      6
                      A                      A                      A
 Frequencies --     45.2210                50.3841                50.4478
 Red. masses --      5.1944                 5.2288                 5.2168
 Frc consts  --      0.0063                 0.0078                 0.0078
 IR Inten    --      1.0282                 0.1599                 0.1447

                      7                      8                      9
                      A                      A                      A
 Frequencies --    118.8762               119.0041               119.1273
 Red. masses --      4.5255                 4.3811                 4.6379
 Frc consts  --      0.0377                 0.0366                 0.0388
 IR Inten    --      0.3000                 0.1935                 0.3759

                     10                     11                     12
                      A                      A                      A
 Frequencies --    209.1798               209.1884               226.8572
 Red. masses --      3.3990                 3.4008                 6.6703
 Frc consts  --      0.0876                 0.0877                 0.2023
 IR Inten    --      0.0169                 0.0168                 0.0000

                     13                     14                     15
                      A                      A                      A
 Frequencies --    281.6448               282.9142               282.9798
 Red. masses --      3.6362                 3.1742                 3.1757
 Frc consts  --      0.1699                 0.1497                 0.1498
 IR Inten    --      0.0284                 0.2739                 0.2710

                     16                     17                     18
                      A                      A                      A
 Frequencies --    288.8722               303.1206               303.1970
 Red. masses --      2.8727                 3.8158                 3.8225
 Frc consts  --      0.1412                 0.2066                 0.2070
 IR Inten    --      0.0000                 2.9634                 2.9579

                     19                     20                     21
                      A                      A                      A
 Frequencies --    325.5806               325.6443               350.7990
 Red. masses --      4.8110                 4.8118                 5.4611
 Frc consts  --      0.3005                 0.3006                 0.3960
 IR Inten    --      0.3442                 0.3500                 0.0274

                     22                     23                     24
                      A                      A                      A
 Frequencies --    407.2449               407.3060               417.2510
 Red. masses --      2.7056                 2.7066                 1.9628
 Frc consts  --      0.2644                 0.2646                 0.2013
 IR Inten    --      4.2126                 4.2066                11.8865

                     25                     26                     27
                      A                      A                      A
 Frequencies --    443.2420               443.3261               529.9289
 Red. masses --      3.2184                 3.2163                 6.6357
 Frc consts  --      0.3725                 0.3724                 1.0979
 IR Inten    --     12.4544                12.4660                 0.5546

                     28                     29                     30
                      A                      A                      A
 Frequencies --    531.8959               531.9320               572.7318
 Red. masses --      6.7168                 6.7167                 7.2706
 Frc consts  --      1.1196                 1.1197                 1.4051
 IR Inten    --      0.0816                 0.0815                 9.3148

                     31                     32                     33
                      A                      A                      A
 Frequencies --    572.7577               595.1800               604.1161
 Red. masses --      7.2708                 3.8153                 7.1801
 Frc consts  --      1.4053                 0.7963                 1.5439
 IR Inten    --      9.3084                 1.5197                 0.0000

                     34                     35                     36
                      A                      A                      A
 Frequencies --    652.1279               652.1871               706.3029
 Red. masses --      4.4206                 4.4272                 1.1627
 Frc consts  --      1.1076                 1.1095                 0.3418
 IR Inten    --      2.2786                 2.2822                 0.0875

                     37                     38                     39
                      A                      A                      A
 Frequencies --    706.3897               706.6449               721.7179
 Red. masses --      1.1628                 1.1625                 1.3553
 Frc consts  --      0.3418                 0.3420                 0.4159
 IR Inten    --      0.1138                 0.0044                67.9958

                     40                     41                     42
                      A                      A                      A
 Frequencies --    722.5872               722.6532               727.1534
 Red. masses --      1.2461                 1.2463                 1.7629
 Frc consts  --      0.3833                 0.3835                 0.5492
 IR Inten    --     45.1977                45.3266                 0.0199

                     43                     44                     45
                      A                      A                      A
 Frequencies --    778.9194               778.9567               882.1597
 Red. masses --      7.8242                 7.8250                 1.8369
 Frc consts  --      2.7969                 2.7974                 0.8422
 IR Inten    --      8.9520                 8.9498                 4.3066

                     46                     47                     48
                      A                      A                      A
 Frequencies --    884.1091               884.3309               896.0072
 Red. masses --      1.4422                 1.4399                 5.6361
 Frc consts  --      0.6642                 0.6634                 2.6659
 IR Inten    --      0.9229                 0.9174                 0.0000

                     49                     50                     51
                      A                      A                      A
 Frequencies --    913.6365               913.6978               915.4447
 Red. masses --      1.5785                 1.5784                 1.5871
 Frc consts  --      0.7763                 0.7764                 0.7836
 IR Inten    --      8.3376                 8.2051                12.1177

                     52                     53                     54
                      A                      A                      A
 Frequencies --    918.1740               918.2413               918.7059
 Red. masses --      1.5066                 1.5061                 1.4807
 Frc consts  --      0.7483                 0.7482                 0.7363
 IR Inten    --      0.0455                 0.0576                 0.0002

                     55                     56                     57
                      A                      A                      A
 Frequencies --    925.7586               925.7914               925.8210
 Red. masses --      1.5373                 1.5352                 1.5347
 Frc consts  --      0.7762                 0.7753                 0.7751
 IR Inten    --    128.0942               115.7205               111.8985

                     58                     59                     60
                      A                      A                      A
 Frequencies --    927.3553               927.3833               936.7953
 Red. masses --      3.0122                 3.0155                 5.5395
 Frc consts  --      1.5262                 1.5280                 2.8643
 IR Inten    --      8.7316                 8.9171                 0.0002

                     61                     62                     63
                      A                      A                      A
 Frequencies --    947.4619               947.4859               967.0776
 Red. masses --      3.0161                 3.0132                 1.4600
 Frc consts  --      1.5952                 1.5938                 0.8045
 IR Inten    --      3.9057                 3.8532                 0.2933

                     64                     65                     66
                      A                      A                      A
 Frequencies --    967.0951               967.4914               975.6410
 Red. masses --      1.4602                 1.4643                 2.0687
 Frc consts  --      0.8046                 0.8076                 1.1602
 IR Inten    --      0.2973                 2.4613                 0.0000

                     67                     68                     69
                      A                      A                      A
 Frequencies --   1017.8682              1063.8643              1063.9099
 Red. masses --      6.2455                 1.0869                 1.0868
 Frc consts  --      3.8124                 0.7248                 0.7248
 IR Inten    --      0.0000                 0.3472                 0.2120

                     70                     71                     72
                      A                      A                      A
 Frequencies --   1063.9236              1073.0717              1073.1646
 Red. masses --      1.0864                 1.7427                 1.7421
 Frc consts  --      0.7246                 1.1823                 1.1821
 IR Inten    --      0.0224                11.4258                11.4245

                     73                     74                     75
                      A                      A                      A
 Frequencies --   1096.7330              1105.4024              1105.4316
 Red. masses --      1.2586                 1.5173                 1.5176
 Frc consts  --      0.8919                 1.0923                 1.0926
 IR Inten    --      0.0000                 0.0790                 0.0784

                     76                     77                     78
                      A                      A                      A
 Frequencies --   1196.9586              1199.6574              1199.6776
 Red. masses --      1.7926                 1.7823                 1.7825
 Frc consts  --      1.5132                 1.5113                 1.5115
 IR Inten    --     11.8341                 1.6593                 1.6668

                     79                     80                     81
                      A                      A                      A
 Frequencies --   1217.8503              1217.9067              1218.0289
 Red. masses --      3.0767                 3.1521                 7.6569
 Frc consts  --      2.6886                 2.7547                 6.6930
 IR Inten    --      3.0526                 2.7452                 5.7689

                     82                     83                     84
                      A                      A                      A
 Frequencies --   1220.2918              1220.3656              1291.2346
 Red. masses --      3.4837                 3.3863                 1.9110
 Frc consts  --      3.0564                 2.9714                 1.8772
 IR Inten    --     20.9338                21.2492                 1.5067

                     85                     86                     87
                      A                      A                      A
 Frequencies --   1340.0454              1346.4937              1364.8646
 Red. masses --      2.5761                 4.4196                 1.6509
 Frc consts  --      2.7256                 4.7211                 1.8120
 IR Inten    --      0.8157                 0.0001                 2.6069

                     88                     89                     90
                      A                      A                      A
 Frequencies --   1364.9048              1366.6370              1390.0743
 Red. masses --      1.6507                 1.7189                 2.2972
 Frc consts  --      1.8119                 1.8915                 2.6153
 IR Inten    --      2.6239                 7.7186               396.8320

                     91                     92                     93
                      A                      A                      A
 Frequencies --   1390.1101              1410.0507              1434.6197
 Red. masses --      2.2968                 2.7424                 4.5994
 Frc consts  --      2.6150                 3.2125                 5.5773
 IR Inten    --    396.3775                 0.0002               272.4861

                     94                     95                     96
                      A                      A                      A
 Frequencies --   1434.6367              1443.1744              1480.1194
 Red. masses --      4.5995                 4.6870                 3.1930
 Frc consts  --      5.5776                 5.7515                 4.1214
 IR Inten    --    272.3092               748.1368              1245.2587

                     97                     98                     99
                      A                      A                      A
 Frequencies --   1480.1336              1489.2854              1491.3864
 Red. masses --      3.1916                 3.6382                 3.9801
 Frc consts  --      4.1197                 4.7544                 5.2158
 IR Inten    --   1245.2081                 0.0013                 0.0433

                    100                    101                    102
                      A                      A                      A
 Frequencies --   1491.4065              1636.3466              1636.3974
 Red. masses --      3.9792                 6.3355                 6.3386
 Frc consts  --      5.2147                 9.9949                10.0005
 IR Inten    --      0.0414               158.8855               158.9156

                    103                    104                    105
                      A                      A                      A
 Frequencies --   2617.0125              2617.0467              2617.8459
 Red. masses --      1.0998                 1.0998                 1.1001
 Frc consts  --      4.4380                 4.4381                 4.4417
 IR Inten    --    428.0531               428.0433                 0.3873

                    106                    107                    108
                      A                      A                      A
 Frequencies --   2628.8491              2628.8896              2629.5693
 Red. masses --      1.0974                 1.0974                 1.0975
 Frc consts  --      4.4682                 4.4684                 4.4714
 IR Inten    --     86.9913                87.3598               366.8170

                    109                    110                    111
                      A                      A                      A
 Frequencies --   2636.6921              2636.7251              2636.8001
 Red. masses --      1.1003                 1.1004                 1.1004
 Frc consts  --      4.5071                 4.5072                 4.5076
 IR Inten    --     14.8371                13.6294                 2.1102

                    112                    113                    114
                      A                      A                      A
 Frequencies --   3196.3738              3196.4143              3197.7903
 Red. masses --      1.0911                 1.0911                 1.0919
 Frc consts  --      6.5680                 6.5682                 6.5788
 IR Inten    --      3.4668                 3.4698                 0.0014

                    115                    116                    117
                      A                      A                      A
 Frequencies --   3628.6825              3628.7463              3628.9274
 Red. masses --      1.0765                 1.0765                 1.0765
 Frc consts  --      8.3511                 8.3515                 8.3525
 IR Inten    --     37.5875                26.8732                12.1013

                    118                    119                    120
                      A                      A                      A
 Frequencies --   3629.8951              3629.9119              3630.0835
 Red. masses --      1.0758                 1.0758                 1.0758
 Frc consts  --      8.3519                 8.3520                 8.3527
 IR Inten    --     41.5221                58.3759                52.4581

 - Thermochemistry -
 -------------------
 Temperature   298.150 Kelvin.  Pressure   1.00000 Atm.
 Atom     1 has atomic number  6 and mass  12.00000

 Molecular mass:   315.25226 amu.
 Principal axes and moments of inertia in atomic units:
                           1         2         3
     Eigenvalues --  9516.286829519.01242**********
           X            1.00000  -0.00225   0.00000
           Y            0.00225   1.00000   0.00000
           Z           -0.00000  -0.00000   1.00000
 This molecule is an asymmetric top.
 Rotational symmetry number  1.
 Warning -- assumption of classical behavior for rotation
           may cause significant error
 Rotational temperatures (Kelvin)      0.00910     0.00910     0.00488
 Rotational constants (GHZ):           0.18965     0.18959     0.10161
 Zero-point vibrational energy     837312.1 (Joules/Mol)
                                  200.12240 (Kcal/Mol)
 Warning -- explicit consideration of  33 degrees of freedom as
           vibrations may cause significant error
 Vibrational temperatures:     57.16    57.92    63.49    65.06    72.49
          (Kelvin)             72.58   171.04   171.22   171.40   300.96
                              300.98   326.40   405.22   407.05   407.14
                              415.62   436.12   436.23   468.44   468.53
                              504.72   585.93   586.02   600.33   637.73
                              637.85   762.45   765.28   765.33   824.03
                              824.07   856.33   869.19   938.27   938.35
                             1016.21  1016.34  1016.70  1038.39  1039.64
                             1039.74  1046.21  1120.69  1120.74  1269.23
                             1272.04  1272.35  1289.15  1314.52  1314.61
                             1317.12  1321.05  1321.14  1321.81  1331.96
                             1332.01  1332.05  1334.26  1334.30  1347.84
                             1363.19  1363.22  1391.41  1391.43  1392.00
                             1403.73  1464.49  1530.66  1530.73  1530.75
                             1543.91  1544.04  1577.95  1590.43  1590.47
                             1722.16  1726.04  1726.07  1752.21  1752.30
                             1752.47  1755.73  1755.83  1857.80  1928.03
                             1937.30  1963.74  1963.79  1966.29  2000.01
                             2000.06  2028.75  2064.10  2064.12  2076.41
                             2129.56  2129.58  2142.75  2145.77  2145.80
                             2354.34  2354.41  3765.30  3765.35  3766.50
                             3782.33  3782.39  3783.36  3793.61  3793.66
                             3793.77  4598.87  4598.93  4600.91  5220.86
                             5220.96  5221.22  5222.61  5222.63  5222.88

 Zero-point correction=                           0.318915 (Hartree/Particle)
 Thermal correction to Energy=                    0.339744
 Thermal correction to Enthalpy=                  0.340688
 Thermal correction to Gibbs Free Energy=         0.268335
 Sum of electronic and zero-point Energies=           -956.631240
 Sum of electronic and thermal Energies=              -956.610411
 Sum of electronic and thermal Enthalpies=            -956.609467
 Sum of electronic and thermal Free Energies=         -956.681820

                     E (Thermal)             CV                S
                      KCal/Mol        Cal/Mol-Kelvin    Cal/Mol-Kelvin
 Total                  213.193             84.175            152.280
 Electronic               0.000              0.000              0.000
 Translational            0.889              2.981             43.141
 Rotational               0.889              2.981             35.730
 Vibrational            211.415             78.213             73.410
 Vibration     1          0.594              1.981              5.273
 Vibration     2          0.594              1.981              5.246
 Vibration     3          0.595              1.980              5.065
 Vibration     4          0.595              1.979              5.016
 Vibration     5          0.595              1.977              4.802
 Vibration     6          0.595              1.977              4.800
 Vibration     7          0.609              1.934              3.119
 Vibration     8          0.609              1.933              3.116
 Vibration     9          0.609              1.933              3.114
 Vibration    10          0.642              1.827              2.051
 Vibration    11          0.642              1.827              2.051
 Vibration    12          0.651              1.800              1.904
 Vibration    13          0.681              1.708              1.524
 Vibration    14          0.682              1.705              1.516
 Vibration    15          0.682              1.705              1.516
 Vibration    16          0.685              1.694              1.481
 Vibration    17          0.695              1.668              1.400
 Vibration    18          0.695              1.668              1.399
 Vibration    19          0.710              1.624              1.282
 Vibration    20          0.710              1.624              1.282
 Vibration    21          0.728              1.574              1.163
 Vibration    22          0.772              1.454              0.936
 Vibration    23          0.772              1.454              0.936
 Vibration    24          0.780              1.433              0.901
 Vibration    25          0.803              1.376              0.816
 Vibration    26          0.803              1.376              0.816
 Vibration    27          0.885              1.184              0.587
 Vibration    28          0.887              1.179              0.583
 Vibration    29          0.887              1.179              0.583
 Vibration    30          0.929              1.090              0.499
 Vibration    31          0.929              1.090              0.499
 Vibration    32          0.953              1.042              0.458
 Vibration    33          0.963              1.023              0.443

 Normal termination of Gaussian 16 at Sun Aug  2 08:58:37 2020.
