 Gaussian 16, Revision A.03,
 Gaussian 16:  ES64L-G16RevA.03 25-Dec-2016

 --------------------------------------------------------------------
 #P B3LYP/6-311++G(d,p) EmpiricalDispersion=GD3 freq(noraman) SCF=YQC
 --------------------------------------------------------------------

 ---------------------------------
 Restart from Triazine_benzene.log
 ---------------------------------
 Symbolic Z-matrix:
 Charge =  0 Multiplicity = 1

                         Standard orientation:
 ---------------------------------------------------------------------
 Center     Atomic      Atomic             Coordinates (Angstroms)
 Number     Number       Type             X           Y           Z
 ---------------------------------------------------------------------
      1          6           0       -1.135361   -0.655514   -0.000000
      2          7           0       -1.182838    0.682832   -0.000000
      3          6           0        0.000000    1.310895    0.000000
      4          7           0        1.182758    0.682866    0.000000
      5          6           0        1.135288   -0.655539    0.000000
      6          7           0       -0.000012   -1.365770   -0.000000
      7          6           0       -2.419724   -1.397032   -0.000000
      8          6           0       -3.638632   -0.704481   -0.000000
      9          6           0       -4.842224   -1.401620   -0.000000
     10          6           0       -4.844279   -2.796825   -0.000000
     11          6           0       -3.634993   -3.492671   -0.000000
     12          6           0       -2.429439   -2.798911   -0.000000
     13          1           0       -3.626586    0.377379   -0.000000
     14          1           0       -5.779801   -0.857272   -0.000000
     15          1           0       -5.783399   -3.338979   -0.000000
     16          1           0       -3.632352   -4.576809   -0.000000
     17          1           0       -1.486513   -3.329429   -0.000000
     18          6           0        2.419678   -1.396973    0.000000
     19          6           0        2.429496   -2.798872    0.000000
     20          6           0        3.635099   -3.492531    0.000000
     21          6           0        4.844339   -2.796587    0.000000
     22          6           0        4.842182   -1.401393    0.000000
     23          6           0        3.638529   -0.704338    0.000000
     24          1           0        1.486616   -3.329480    0.000000
     25          1           0        3.632567   -4.576669    0.000000
     26          1           0        5.783487   -3.338697    0.000000
     27          1           0        5.779708   -0.856961    0.000000
     28          1           0        3.626404    0.377522    0.000000
     29          6           0       -0.000036    2.793931    0.000000
     30          6           0       -1.209227    3.503316   -0.000000
     31          6           0       -1.207213    4.894237    0.000000
     32          6           0        0.000067    5.593555    0.000000
     33          6           0        1.207306    4.894142    0.000000
     34          6           0        1.209205    3.503233    0.000000
     35          1           0       -2.140171    2.952035   -0.000000
     36          1           0       -2.147405    5.434054   -0.000000
     37          1           0        0.000107    6.677935    0.000000
     38          1           0        2.147534    5.433894    0.000000
     39          1           0        2.140085    2.951838    0.000000
 ---------------------------------------------------------------------

 SCF Done:  E(RB3LYP) =  -973.831554794     a.u. after    6 cycles
 SCF Done:  E(RB3LYP) =  -973.831572156     A.U. after    9 cycles

 The electronic state is 1-A'.
 Alpha  occ. eigenvalues --  -14.32080 -14.32080 -14.32077 -10.26674 -10.26674
 Alpha  occ. eigenvalues --  -10.26673 -10.19330 -10.19330 -10.19329 -10.18742
 Alpha  occ. eigenvalues --  -10.18742 -10.18742 -10.18413 -10.18413 -10.18413
 Alpha  occ. eigenvalues --  -10.18409 -10.18409 -10.18408 -10.18355 -10.18355
 Alpha  occ. eigenvalues --  -10.18354 -10.18353 -10.18352 -10.18352  -1.03078
 Alpha  occ. eigenvalues --   -0.91559  -0.91558  -0.86728  -0.86494  -0.86494
 Alpha  occ. eigenvalues --   -0.77685  -0.77685  -0.76591  -0.75813  -0.75687
 Alpha  occ. eigenvalues --   -0.75687  -0.68694  -0.68693  -0.63227  -0.62539
 Alpha  occ. eigenvalues --   -0.61462  -0.61461  -0.59135  -0.59135  -0.55255
 Alpha  occ. eigenvalues --   -0.55218  -0.52446  -0.52446  -0.49155  -0.47017
 Alpha  occ. eigenvalues --   -0.47016  -0.46637  -0.45749  -0.45749  -0.45471
 Alpha  occ. eigenvalues --   -0.45059  -0.43456  -0.43456  -0.43024  -0.42572
 Alpha  occ. eigenvalues --   -0.42571  -0.39309  -0.39309  -0.37678  -0.37415
 Alpha  occ. eigenvalues --   -0.37088  -0.36141  -0.36141  -0.35586  -0.35586
 Alpha  occ. eigenvalues --   -0.35196  -0.33927  -0.33926  -0.27236  -0.27235
 Alpha  occ. eigenvalues --   -0.26658  -0.26658  -0.26554  -0.26265  -0.25671
 Alpha  occ. eigenvalues --   -0.25671
 Alpha virt. eigenvalues --   -0.08073  -0.08072  -0.03433  -0.02029  -0.02028
 Alpha virt. eigenvalues --   -0.01966  -0.01010  -0.00399  -0.00399   0.00868
 Alpha virt. eigenvalues --    0.00869   0.01435   0.02068   0.02138   0.02139

 Mulliken charges:
               1
     1  C    0.172528
     2  N    0.067478
     3  C    0.172466
     4  N    0.067480
     5  C    0.172546
     6  N    0.067520
     7  C    0.819288
     8  C   -0.332661
     9  C   -0.478777
    10  C   -0.238886
    11  C   -0.478911
    12  C   -0.332944
    13  H    0.138422
    14  H    0.187221
    15  H    0.151561
    16  H    0.187219
    17  H    0.138406
    18  C    0.819283
    19  C   -0.332635
    20  C   -0.478814
    21  C   -0.238874
    22  C   -0.478840
    23  C   -0.332976
    24  H    0.138391
    25  H    0.187222
    26  H    0.151561
    27  H    0.187222
    28  H    0.138419
    29  C    0.819050
    30  C   -0.332769
    31  C   -0.478799
    32  C   -0.238868
    33  C   -0.478669
    34  C   -0.332625
    35  H    0.138398
    36  H    0.187218
    37  H    0.151559
    38  H    0.187221
    39  H    0.138372
 Sum of Mulliken charges =  -0.00000

 Dipole moment (field-independent basis, Debye):
    X=              0.0002    Y=             -0.0004    Z=              0.0000  Tot=              0.0005
 Quadrupole moment (field-independent basis, Debye-Ang):
   XX=           -118.3809   YY=           -118.3835   ZZ=           -147.7639
   XY=             -0.0003   XZ=              0.0000   YZ=              0.0000

  Exact polarizability: 368.571   0.001 368.570   0.000   0.000 129.849
 Approx polarizability: 552.561  -0.000 552.549   0.000   0.000 211.813

                      1                      2                      3
                     A"                     A"                     A"
 Frequencies --     17.1542                27.1007                27.4158
 Red. masses --      3.6313                 3.7421                 3.7423
 Frc consts  --      0.0006                 0.0016                 0.0017
 IR Inten    --      0.0000                 0.0000                 0.0000

                      4                      5                      6
                     A"                     A'                     A'
 Frequencies --     47.6108                73.4332                73.4549
 Red. masses --      6.0131                 5.2555                 5.2557
 Frc consts  --      0.0080                 0.0167                 0.0167
 IR Inten    --      1.2696                 0.3563                 0.3565

                      7                      8                      9
                     A"                     A"                     A'
 Frequencies --    100.1089               100.1681               202.4733
 Red. masses --      6.6515                 6.6472                 4.8100
 Frc consts  --      0.0393                 0.0393                 0.1162
 IR Inten    --      0.0000                 0.0000                 0.0000

                     10                     11                     12
                     A"                     A"                     A"
 Frequencies --    207.6729               207.7212               238.1673
 Red. masses --      6.5603                 6.5638                 5.1838
 Frc consts  --      0.1667                 0.1669                 0.1732
 IR Inten    --      0.0000                 0.0000                 0.1973

                     13                     14                     15
                     A'                     A'                     A'
 Frequencies --    248.5808               289.9348               289.9492
 Red. masses --      6.5749                 5.4670                 5.4667
 Frc consts  --      0.2394                 0.2708                 0.2708
 IR Inten    --      0.0000                 0.0367                 0.0369

                     16                     17                     18
                     A"                     A"                     A"
 Frequencies --    412.5502               413.9888               414.0182
 Red. masses --      2.8660                 2.8888                 2.8891
 Frc consts  --      0.2874                 0.2917                 0.2918
 IR Inten    --      0.0000                 0.0000                 0.0000

                     19                     20                     21
                     A'                     A'                     A"
 Frequencies --    443.7758               443.7811               449.5738
 Red. masses --      7.3655                 7.3653                 3.7589
 Frc consts  --      0.8546                 0.8546                 0.4476
 IR Inten    --      0.5377                 0.5384                 0.0000

                     22                     23                     24
                     A"                     A"                     A'
 Frequencies --    449.6457               497.7445               608.2818
 Red. masses --      3.7595                 3.4581                 8.6086
 Frc consts  --      0.4478                 0.5048                 1.8767
 IR Inten    --      0.0000                15.1269                 0.0000

                     25                     26                     27
                     A'                     A'                     A'
 Frequencies --    631.2948               631.4712               631.4837
 Red. masses --      6.4357                 6.5202                 6.5200
 Frc consts  --      1.5111                 1.5319                 1.5319
 IR Inten    --      0.0015                 0.5491                 0.5493

                     28                     29                     30
                     A'                     A'                     A"
 Frequencies --    660.7796               660.8020               677.8435
 Red. masses --      7.7743                 7.7743                 5.0106
 Frc consts  --      2.0000                 2.0001                 1.3564
 IR Inten    --     30.2618                30.2827                 0.0000

                     31                     32                     33
                     A"                     A'                     A"
 Frequencies --    677.8645               693.4151               703.6022
 Red. masses --      5.0137                 6.5476                 1.9155
 Frc consts  --      1.3574                 1.8549                 0.5587
 IR Inten    --      0.0001                 0.0000               110.3745

                     34                     35                     36
                     A"                     A"                     A"
 Frequencies --    707.7747               707.7964               764.8513
 Red. masses --      1.4666                 1.4666                 1.8023
 Frc consts  --      0.4329                 0.4329                 0.6212
 IR Inten    --      0.0000                 0.0029               144.9674

                     37                     38                     39
                     A"                     A"                     A'
 Frequencies --    806.1551               806.1736               858.5544
 Red. masses --      2.5415                 2.5420                 7.7249
 Frc consts  --      0.9731                 0.9734                 3.3549
 IR Inten    --      0.0000                 0.0000                16.5285

                     40                     41                     42
                     A'                     A"                     A"
 Frequencies --    858.5577               860.5205               862.9776
 Red. masses --      7.7248                 1.2494                 1.2476
 Frc consts  --      3.3549                 0.5451                 0.5474
 IR Inten    --     16.5284                 0.0000                 0.0000

                     43                     44                     45
                     A"                     A"                     A"
 Frequencies --    862.9965               869.5140               957.0570
 Red. masses --      1.2476                 6.3854                 1.4399
 Frc consts  --      0.5474                 2.8444                 0.7771
 IR Inten    --      0.0000                 3.1983                 0.0000

                     46                     47                     48
                     A"                     A"                     A"
 Frequencies --    957.1000               959.8723               999.3654
 Red. masses --      1.4397                 1.4555                 1.3765
 Frc consts  --      0.7770                 0.7901                 0.8100
 IR Inten    --      0.0003                 4.1623                 0.0000

                     49                     50                     51
                     A"                     A"                     A"
 Frequencies --   1000.9219              1000.9400              1009.3582
 Red. masses --      1.3713                 1.3712                 1.2980
 Frc consts  --      0.8094                 0.8094                 0.7792
 IR Inten    --      0.0000                 0.0000                 0.0000

                     52                     53                     54
                     A"                     A'                     A"
 Frequencies --   1009.3635              1009.9665              1010.4816
 Red. masses --      1.2980                 9.4829                 1.2992
 Frc consts  --      0.7791                 5.6991                 0.7816
 IR Inten    --      0.0000                 0.0000                 0.0371

                     55                     56                     57
                     A'                     A'                     A'
 Frequencies --   1016.0491              1016.0515              1019.7375
 Red. masses --      6.2759                 6.2759                 6.9846
 Frc consts  --      3.8173                 3.8173                 4.2793
 IR Inten    --      1.6301                 1.6288                 0.0000

                     58                     59                     60
                     A'                     A'                     A'
 Frequencies --   1044.7938              1047.4409              1047.4611
 Red. masses --      3.4154                 2.1816                 2.1818
 Frc consts  --      2.1966                 1.4102                 1.4104
 IR Inten    --      0.0002                19.8613                19.8316

                     61                     62                     63
                     A'                     A'                     A'
 Frequencies --   1079.3308              1101.3460              1104.1604
 Red. masses --      2.6512                 1.5778                 1.5791
 Frc consts  --      1.8197                 1.1276                 1.1343
 IR Inten    --      0.0000                 0.0001                10.5398

                     64                     65                     66
                     A'                     A'                     A'
 Frequencies --   1104.1696              1172.3203              1172.3540
 Red. masses --      1.5788                 2.9120                 2.9119
 Frc consts  --      1.1341                 2.3580                 2.3580
 IR Inten    --     10.5377                21.7905                21.8139

                     67                     68                     69
                     A'                     A'                     A'
 Frequencies --   1189.3918              1191.2627              1191.2645
 Red. masses --      1.2258                 1.1334                 1.1334
 Frc consts  --      1.0217                 0.9476                 0.9476
 IR Inten    --      0.0001                 0.2016                 0.2023

                     70                     71                     72
                     A'                     A'                     A'
 Frequencies --   1204.4194              1205.0769              1205.0799
 Red. masses --      5.2685                 1.2885                 1.2889
 Frc consts  --      4.5029                 1.1024                 1.1028
 IR Inten    --      0.0200                33.0890                33.0670

                     73                     74                     75
                     A'                     A'                     A'
 Frequencies --   1207.1125              1321.1024              1321.1142
 Red. masses --      1.1456                 2.6418                 2.6406
 Frc consts  --      0.9835                 2.7166                 2.7154
 IR Inten    --      0.0004                19.2903                19.3002

                     76                     77                     78
                     A'                     A'                     A'
 Frequencies --   1333.1715              1349.0818              1349.0918
 Red. masses --      2.1347                 2.1198                 2.1190
 Frc consts  --      2.2355                 2.2731                 2.2723
 IR Inten    --      0.0000                 0.4103                 0.4178

                     79                     80                     81
                     A'                     A'                     A'
 Frequencies --   1349.8407              1393.6588              1393.6702
 Red. masses --      2.4559                 5.2500                 5.2518
 Frc consts  --      2.6365                 6.0079                 6.0101
 IR Inten    --      0.0000               359.4289               359.4257

                     82                     83                     84
                     A'                     A'                     A'
 Frequencies --   1431.2107              1474.2479              1474.2709
 Red. masses --      4.6586                 2.4151                 2.4149
 Frc consts  --      5.6223                 3.0926                 3.0925
 IR Inten    --      0.0002                94.5215                94.3191

                     85                     86                     87
                     A'                     A'                     A'
 Frequencies --   1478.8212              1522.4627              1522.4774
 Red. masses --      2.2335                 2.3397                 2.3398
 Frc consts  --      2.8779                 3.1952                 3.1955
 IR Inten    --      0.0007                17.6884                17.6394

                     88                     89                     90
                     A'                     A'                     A'
 Frequencies --   1530.1543              1555.6835              1555.7828
 Red. masses --      2.6582                 7.9417                 7.9457
 Frc consts  --      3.6670                11.3242                11.3313
 IR Inten    --      0.0002               821.6988               822.0934

                     91                     92                     93
                     A'                     A'                     A'
 Frequencies --   1617.7792              1625.1238              1625.1307
 Red. masses --      5.6265                 6.1026                 6.1035
 Frc consts  --      8.6762                 9.4959                 9.4974
 IR Inten    --      0.0000                45.9807                46.1295

                     94                     95                     96
                     A'                     A'                     A'
 Frequencies --   1641.3725              1641.3837              1641.6794
 Red. masses --      5.5877                 5.5873                 5.5396
 Frc consts  --      8.8694                 8.8690                 8.7964
 IR Inten    --      1.7250                 1.7322                 0.0009

                     97                     98                     99
                     A'                     A'                     A'
 Frequencies --   3161.0419              3161.0540              3161.1126
 Red. masses --      1.0860                 1.0860                 1.0860
 Frc consts  --      6.3937                 6.3938                 6.3941
 IR Inten    --      0.0004                 0.0004                 0.0001

                    100                    101                    102
                     A'                     A'                     A'
 Frequencies --   3172.8916              3172.9515              3172.9713
 Red. masses --      1.0901                 1.0901                 1.0901
 Frc consts  --      6.4658                 6.4661                 6.4662
 IR Inten    --      0.4984                19.1400                18.5843

                    103                    104                    105
                     A'                     A'                     A'
 Frequencies --   3184.6575              3184.6741              3184.8186
 Red. masses --      1.0953                 1.0953                 1.0952
 Frc consts  --      6.5447                 6.5448                 6.5451
 IR Inten    --     36.2950                36.5030                 0.1846

                    106                    107                    108
                     A'                     A'                     A'
 Frequencies --   3205.9703              3206.4724              3206.4750
 Red. masses --      1.0920                 1.0922                 1.0922
 Frc consts  --      6.6128                 6.6164                 6.6165
 IR Inten    --      0.0001                 1.2852                 1.2554

                    109                    110                    111
                     A'                     A'                     A'
 Frequencies --   3207.3735              3207.3789              3207.9393
 Red. masses --      1.0934                 1.0934                 1.0936
 Frc consts  --      6.6272                 6.6271                 6.6307
 IR Inten    --     14.7970                14.9010                 0.0109

 - Thermochemistry -
 -------------------
 Temperature   298.150 Kelvin.  Pressure   1.00000 Atm.
 Atom     1 has atomic number  6 and mass  12.00000

 Molecular mass:   309.12660 amu.
 Principal axes and moments of inertia in atomic units:
                           1         2         3
     Eigenvalues --  8548.617888549.22232**********
           X            0.96114  -0.27605   0.00000
           Y            0.27605   0.96114   0.00000
           Z            0.00000   0.00000   1.00000
 This molecule is an asymmetric top.
 Rotational symmetry number  1.
 Warning -- assumption of classical behavior for rotation
           may cause significant error
 Rotational temperatures (Kelvin)      0.01013     0.01013     0.00507
 Rotational constants (GHZ):           0.21111     0.21110     0.10555
 Zero-point vibrational energy     803879.0 (Joules/Mol)
                                  192.13170 (Kcal/Mol)
 Warning -- explicit consideration of  24 degrees of freedom as
           vibrations may cause significant error
 Vibrational temperatures:     24.68    38.99    39.45    68.50   105.65
          (Kelvin)            105.69   144.03   144.12   291.31   298.80
                              298.86   342.67   357.65   417.15   417.17
                              593.57   595.64   595.68   638.49   638.50
                              646.84   646.94   716.14   875.18   908.29
                              908.55   908.56   950.71   950.75   975.27
                              975.30   997.67  1012.33  1018.33  1018.36
                             1100.45  1159.88  1159.90  1235.27  1235.27
                             1238.10  1241.63  1241.66  1251.04  1376.99
                             1377.05  1381.04  1437.86  1440.10  1440.13
                             1452.24  1452.25  1453.12  1453.86  1461.87
                             1461.87  1467.17  1503.23  1507.03  1507.06
                             1552.92  1584.59  1588.64  1588.65  1686.71
                             1686.76  1711.27  1713.96  1713.96  1732.89
                             1733.84  1733.84  1736.77  1900.77  1900.79
                             1918.14  1941.03  1941.04  1942.12  2005.16
                             2005.18  2059.19  2121.11  2121.15  2127.69
                             2190.48  2190.51  2201.55  2238.28  2238.42
                             2327.62  2338.19  2338.20  2361.57  2361.59
                             2362.01  4548.03  4548.05  4548.14  4565.08
                             4565.17  4565.20  4582.01  4582.04  4582.24
                             4612.68  4613.40  4613.40  4614.70  4614.70
                             4615.51

 Zero-point correction=                           0.306181 (Hartree/Particle)
 Thermal correction to Energy=                    0.324380
 Thermal correction to Enthalpy=                  0.325324
 Thermal correction to Gibbs Free Energy=         0.256378
 Sum of electronic and zero-point Energies=           -973.525391
 Sum of electronic and thermal Energies=              -973.507192
 Sum of electronic and thermal Enthalpies=            -973.506248
 Sum of electronic and thermal Free Energies=         -973.575194

                     E (Thermal)             CV                S
                      KCal/Mol        Cal/Mol-Kelvin    Cal/Mol-Kelvin
 Total                  203.552             72.183            145.110
 Electronic               0.000              0.000              0.000
 Translational            0.889              2.981             43.082
 Rotational               0.889              2.981             35.479
 Vibrational            201.774             66.222             66.549
 Vibration     1          0.593              1.986              6.939
 Vibration     2          0.593              1.984              6.031
 Vibration     3          0.593              1.984              6.008
 Vibration     4          0.595              1.978              4.914
 Vibration     5          0.599              1.967              4.059
 Vibration     6          0.599              1.967              4.059
 Vibration     7          0.604              1.949              3.452
 Vibration     8          0.604              1.949              3.451
 Vibration     9          0.639              1.836              2.111
 Vibration    10          0.641              1.829              2.064
 Vibration    11          0.641              1.829              2.064
 Vibration    12          0.656              1.782              1.817
 Vibration    13          0.662              1.765              1.741
 Vibration    14          0.686              1.692              1.474
 Vibration    15          0.686              1.692              1.474
 Vibration    16          0.776              1.443              0.918
 Vibration    17          0.778              1.440              0.913
 Vibration    18          0.778              1.440              0.913
 Vibration    19          0.803              1.375              0.815
 Vibration    20          0.803              1.375              0.815
 Vibration    21          0.808              1.362              0.797
 Vibration    22          0.809              1.362              0.797
 Vibration    23          0.853              1.255              0.664
 Vibration    24          0.967              1.014              0.436

 Optimization completed.
    -- Stationary point found.
 Normal termination of Gaussian 16 at Wed Apr 15 21:37:28 2020.
