 Gaussian 16, Revision C.01,
 Gaussian 16:  ES64L-G16RevC.01  3-Jul-2019

 --------------------------------------------------------------------
 #P B3LYP/6-311++G(d,p) EmpiricalDispersion=GD3 freq(noraman) SCF=YQC
 --------------------------------------------------------------------

 --------------------------------------------------
 Restart from 2_Phenyl_C_Catechol_BoronateEster.log
 --------------------------------------------------
 Symbolic Z-matrix:
 Charge =  0 Multiplicity = 1

                         Standard orientation:
 ---------------------------------------------------------------------
 Center     Atomic      Atomic             Coordinates (Angstroms)
 Number     Number       Type             X           Y           Z
 ---------------------------------------------------------------------
      1          6           0       -1.151366   -0.698189   -0.001723
      2          6           0       -1.151447    0.697696    0.001818
      3          6           0       -0.000214    1.479962    0.006687
      4          6           0        1.151385    0.698223    0.001764
      5          6           0        1.151464   -0.697723   -0.001767
      6          6           0        0.000253   -1.479958   -0.006644
      7          6           0       -0.001423    2.980488   -0.001194
      8          6           0        0.001261   -2.980482    0.001272
      9          1           0       -0.905184   -3.368783   -0.465639
     10          1           0        0.871898   -3.368558   -0.530184
     11          1           0        0.039748   -3.365820    1.025431
     12          1           0        0.909105    3.368782    0.457629
     13          1           0       -0.049357    3.365840   -1.024944
     14          1           0       -0.867315    3.368558    0.538039
     15          5           0       -3.251639   -0.000187    0.000053
     16          6           0       -4.789185   -0.000181    0.000013
     17          6           0       -5.507401   -1.207698    0.000125
     18          6           0       -5.507333    1.207376   -0.000149
     19          6           0       -6.899421   -1.209048    0.000154
     20          6           0       -6.899354    1.208794   -0.000259
     21          6           0       -7.596502   -0.000107   -0.000073
     22          8           0       -2.458486   -1.144917   -0.002881
     23          8           0       -2.458490    1.144568    0.003016
     24          1           0       -7.442072   -2.147846    0.000364
     25          1           0       -7.441952    2.147623   -0.000502
     26          1           0       -4.965618    2.147035   -0.000530
     27          1           0       -4.965753   -2.147394    0.000542
     28          1           0       -8.681063   -0.000077   -0.000107
     29          5           0        3.251662    0.000186   -0.000057
     30          6           0        4.789208    0.000179   -0.000038
     31          6           0        5.507427    1.207695   -0.000181
     32          6           0        5.507357   -1.207378    0.000132
     33          6           0        6.899446    1.209044   -0.000233
     34          6           0        6.899377   -1.208798    0.000221
     35          6           0        7.596526    0.000103    0.000004
     36          8           0        2.458519    1.144915    0.002895
     37          8           0        2.458522   -1.144564   -0.002981
     38          1           0        7.442098    2.147842   -0.000466
     39          1           0        7.441975   -2.147627    0.000472
     40          1           0        4.965642   -2.147037    0.000539
     41          1           0        4.965780    2.147391   -0.000606
     42          1           0        8.681087    0.000072    0.000021
 ---------------------------------------------------------------------

 SCF Done:  E(RB3LYP) =  -1122.92343602     a.u. after    6 cycles
 SCF Done:  E(RB3LYP) =  -1122.92344640     A.U. after    8 cycles

 The electronic state is 1-A.
 Alpha  occ. eigenvalues --  -19.16744 -19.16743 -19.16742 -19.16741 -10.23803
 Alpha  occ. eigenvalues --  -10.23801 -10.23748 -10.23746 -10.19994 -10.19993
 Alpha  occ. eigenvalues --  -10.18624 -10.18624 -10.18428 -10.18427 -10.18427
 Alpha  occ. eigenvalues --  -10.18427 -10.18212 -10.18212 -10.18208 -10.18208
 Alpha  occ. eigenvalues --  -10.17693 -10.17692 -10.17105 -10.17105  -6.79539
 Alpha  occ. eigenvalues --   -6.79539  -1.11491  -1.11287  -1.03986  -1.03867
 Alpha  occ. eigenvalues --   -0.87292  -0.86324  -0.86230  -0.80491  -0.76088
 Alpha  occ. eigenvalues --   -0.75704  -0.75553  -0.75544  -0.73763  -0.72699
 Alpha  occ. eigenvalues --   -0.68021  -0.63730  -0.62736  -0.61440  -0.61407
 Alpha  occ. eigenvalues --   -0.60766  -0.60128  -0.58251  -0.57844  -0.54864
 Alpha  occ. eigenvalues --   -0.53775  -0.52403  -0.49850  -0.48674  -0.47299
 Alpha  occ. eigenvalues --   -0.46947  -0.46362  -0.46338  -0.46149  -0.45510
 Alpha  occ. eigenvalues --   -0.44948  -0.43041  -0.43020  -0.43011  -0.42753
 Alpha  occ. eigenvalues --   -0.41995  -0.41956  -0.41849  -0.40735  -0.39575
 Alpha  occ. eigenvalues --   -0.37940  -0.37865  -0.37849  -0.37839  -0.37766
 Alpha  occ. eigenvalues --   -0.37537  -0.37377  -0.35370  -0.35082  -0.35052
 Alpha  occ. eigenvalues --   -0.34445  -0.34258  -0.32962  -0.27486  -0.26549
 Alpha  occ. eigenvalues --   -0.26436  -0.26428  -0.24086  -0.21990
 Alpha virt. eigenvalues --   -0.05257  -0.04643  -0.02111  -0.02065  -0.01511
 Alpha virt. eigenvalues --   -0.01066  -0.00615  -0.00034   0.00045   0.01077
 Alpha virt. eigenvalues --    0.01107   0.01547   0.01692   0.02076   0.02444

 Mulliken charges:
               1
     1  C   -0.280216
     2  C   -0.275992
     3  C    0.413581
     4  C   -0.280945
     5  C   -0.277082
     6  C    0.413987
     7  C   -0.568567
     8  C   -0.568821
     9  H    0.168683
    10  H    0.166197
    11  H    0.180444
    12  H    0.168988
    13  H    0.180397
    14  H    0.165884
    15  B    0.723147
    16  C   -0.388660
    17  C   -0.029424
    18  C   -0.031058
    19  C   -0.102471
    20  C   -0.103184
    21  C   -0.378101
    22  O   -0.185888
    23  O   -0.182564
    24  H    0.180871
    25  H    0.180916
    26  H    0.183109
    27  H    0.182558
    28  H    0.147880
    29  B    0.722938
    30  C   -0.389065
    31  C   -0.028985
    32  C   -0.030817
    33  C   -0.102563
    34  C   -0.103212
    35  C   -0.378271
    36  O   -0.186166
    37  O   -0.182755
    38  H    0.180873
    39  H    0.180919
    40  H    0.183059
    41  H    0.182494
    42  H    0.147884
 Sum of Mulliken charges =   0.00000

 Dipole moment (field-independent basis, Debye):
    X=             -0.0002    Y=             -0.0000    Z=              0.0000  Tot=              0.0002
 Quadrupole moment (field-independent basis, Debye-Ang):
   XX=           -126.8620   YY=           -138.5490   ZZ=           -155.4417
   XY=             -0.0067   XZ=             -0.0000   YZ=             -0.0992

  Exact polarizability:     452.106      -0.211     270.704       0.001      -1.181     140.497
 Approx polarizability:     558.458      -0.365     462.423       0.001      -1.717     227.241

                      1                      2                      3
                      A                      A                      A
 Frequencies --     21.2315                34.3816                36.0978
 Red. masses --      6.3149                 1.0328                 3.3885
 Frc consts  --      0.0017                 0.0007                 0.0026
 IR Inten    --      0.2002                 0.0265                 0.0010

                      4                      5                      6
                      A                      A                      A
 Frequencies --     38.1109                43.3210                43.7494
 Red. masses --      1.0198                 5.3513                 3.7560
 Frc consts  --      0.0009                 0.0059                 0.0042
 IR Inten    --      0.0002                 0.1384                 0.0000

                      7                      8                      9
                      A                      A                      A
 Frequencies --     56.5190                74.8150               112.6719
 Red. masses --      7.0374                 4.7819                 3.6177
 Frc consts  --      0.0132                 0.0158                 0.0271
 IR Inten    --      0.0000                 0.0000                 2.7190

                     10                     11                     12
                      A                      A                      A
 Frequencies --    134.5021               181.1853               186.8425
 Red. masses --      4.2822                 6.1100                 6.8899
 Frc consts  --      0.0456                 0.1182                 0.1417
 IR Inten    --      0.3454                 0.0000                 0.0000

                     13                     14                     15
                      A                      A                      A
 Frequencies --    195.6325               199.6430               208.7068
 Red. masses --     15.3607                 3.0861                 5.0073
 Frc consts  --      0.3464                 0.0725                 0.1285
 IR Inten    --      0.0019                 0.0000                 0.0000

                     16                     17                     18
                      A                      A                      A
 Frequencies --    217.1145               219.0070               273.0559
 Red. masses --      2.9523                 5.3069                 7.4193
 Frc consts  --      0.0820                 0.1500                 0.3259
 IR Inten    --      2.9330                 0.0985                 0.3548

                     19                     20                     21
                      A                      A                      A
 Frequencies --    318.7418               366.1215               375.9420
 Red. masses --      5.9295                 8.2045                 5.9279
 Frc consts  --      0.3549                 0.6480                 0.4936
 IR Inten    --      0.0714                 0.0000                 0.0000

                     22                     23                     24
                      A                      A                      A
 Frequencies --    394.5320               408.7793               408.8685
 Red. masses --      5.7715                 2.8176                 2.8185
 Frc consts  --      0.5293                 0.2774                 0.2776
 IR Inten    --      0.0000                 0.0000                 0.0000

                     25                     26                     27
                      A                      A                      A
 Frequencies --    455.6790               457.7326               458.5295
 Red. masses --      7.2495                 4.0616                 6.0408
 Frc consts  --      0.8869                 0.5014                 0.7483
 IR Inten    --      0.9077                 1.4472                 0.0000

                     28                     29                     30
                      A                      A                      A
 Frequencies --    466.3433               546.4019               564.9542
 Red. masses --      4.1647                12.0167                 7.0442
 Frc consts  --      0.5336                 2.1138                 1.3247
 IR Inten    --      0.0000                 0.0000                 0.0000

                     31                     32                     33
                      A                      A                      A
 Frequencies --    577.8497               632.8399               633.0837
 Red. masses --      4.6490                 6.4595                 6.4739
 Frc consts  --      0.9146                 1.5242                 1.5288
 IR Inten    --      0.1749                 0.0000                 0.3217

                     34                     35                     36
                      A                      A                      A
 Frequencies --    660.2205               672.5766               680.9837
 Red. masses --      7.3440                 6.8589                 5.3595
 Frc consts  --      1.8861                 1.8280                 1.4644
 IR Inten    --      9.2580                17.4607                 0.0001

                     37                     38                     39
                      A                      A                      A
 Frequencies --    684.1058               700.2612               710.7033
 Red. masses --      5.4276                 7.5121                 1.5775
 Frc consts  --      1.4966                 2.1704                 0.4695
 IR Inten    --     85.2982                 0.0000                 0.1300

                     40                     41                     42
                      A                      A                      A
 Frequencies --    710.7211               711.6502               740.1056
 Red. masses --      1.5701                12.2152                 8.4030
 Frc consts  --      0.4673                 3.6449                 2.7119
 IR Inten    --    124.9520                 0.0219                 0.0000

                     43                     44                     45
                      A                      A                      A
 Frequencies --    750.4162               784.1399               784.2142
 Red. masses --      3.8528                 2.3382                 2.3308
 Frc consts  --      1.2783                 0.8471                 0.8445
 IR Inten    --      0.0002                12.5212                 0.0003

                     46                     47                     48
                      A                      A                      A
 Frequencies --    824.9852               829.0069               868.5645
 Red. masses --     11.9492                11.7682                 1.2474
 Frc consts  --      4.7916                 4.7651                 0.5545
 IR Inten    --      0.5068                 0.0000                 0.0002

                     49                     50                     51
                      A                      A                      A
 Frequencies --    868.5901               885.8792               948.8219
 Red. masses --      1.2474                 2.6174                 1.3869
 Frc consts  --      0.5545                 1.2103                 0.7356
 IR Inten    --      0.0000                84.0703                 1.1237

                     52                     53                     54
                      A                      A                      A
 Frequencies --    948.8362               965.7540               998.4018
 Red. masses --      1.3875                 8.4096                 1.3883
 Frc consts  --      0.7360                 4.6212                 0.8153
 IR Inten    --      0.0820                 0.7278                 0.0001

                     55                     56                     57
                      A                      A                      A
 Frequencies --    998.4129              1010.2645              1010.3077
 Red. masses --      1.3882                 1.2997                 1.3001
 Frc consts  --      0.8153                 0.7815                 0.7819
 IR Inten    --      0.0012                 0.0056                 0.0000

                     58                     59                     60
                      A                      A                      A
 Frequencies --   1014.0326              1014.0402              1042.6375
 Red. masses --      6.1597                 6.2176                 3.2921
 Frc consts  --      3.7318                 3.7669                 2.1086
 IR Inten    --      0.1398                 0.0000                83.8791

                     61                     62                     63
                      A                      A                      A
 Frequencies --   1043.9161              1052.3047              1053.6021
 Red. masses --      3.2003                 3.2758                 1.4405
 Frc consts  --      2.0548                 2.1372                 0.9422
 IR Inten    --      0.0000                 0.0005                 0.0001

                     64                     65                     66
                      A                      A                      A
 Frequencies --   1057.7221              1080.0971              1092.2044
 Red. masses --      1.4648                 2.2183                 3.0281
 Frc consts  --      0.9656                 1.5247                 2.1283
 IR Inten    --      8.8257                 0.1089                 0.0001

                     67                     68                     69
                      A                      A                      A
 Frequencies --   1095.8746              1096.3777              1101.6543
 Red. masses --      1.7671                 1.7756                 2.5450
 Frc consts  --      1.2504                 1.2575                 1.8199
 IR Inten    --     32.1400                 0.0001                 0.0006

                     70                     71                     72
                      A                      A                      A
 Frequencies --   1122.4246              1148.5914              1175.8379
 Red. masses --      3.1108                 6.3915                 7.2911
 Frc consts  --      2.3091                 4.9681                 5.9393
 IR Inten    --    775.9779                 0.0035               122.4428

                     73                     74                     75
                      A                      A                      A
 Frequencies --   1192.1216              1192.1761              1212.3560
 Red. masses --      1.1336                 1.1326                 1.1434
 Frc consts  --      0.9492                 0.9484                 0.9902
 IR Inten    --      0.0000                 0.2626                14.4370

                     76                     77                     78
                      A                      A                      A
 Frequencies --   1212.4850              1221.3308              1297.0660
 Red. masses --      1.1444                 7.5421                 5.1368
 Frc consts  --      0.9913                 6.6284                 5.0918
 IR Inten    --      0.0000                 0.0000                18.4089

                     79                     80                     81
                      A                      A                      A
 Frequencies --   1322.3462              1331.1502              1348.9406
 Red. masses --      4.0967                 4.8015                 7.4014
 Frc consts  --      4.2206                 5.0128                 7.9350
 IR Inten    --      0.0000                22.1580               437.1812

                     82                     83                     84
                      A                      A                      A
 Frequencies --   1355.9641              1355.9681              1361.1560
 Red. masses --      1.5361                 1.5415                 9.3703
 Frc consts  --      1.6641                 1.6699                10.2287
 IR Inten    --      5.9745                 0.1126                 0.0383

                     85                     86                     87
                      A                      A                      A
 Frequencies --   1379.9947              1390.1537              1418.4631
 Red. masses --      7.1216                 4.7004                 1.2874
 Frc consts  --      7.9906                 5.3520                 1.5261
 IR Inten    --   1367.7019                 0.0046                 0.4752

                     88                     89                     90
                      A                      A                      A
 Frequencies --   1420.2034              1433.8806              1466.5462
 Red. masses --      1.2848                 3.8093                 2.1182
 Frc consts  --      1.5268                 4.6145                 2.6841
 IR Inten    --      0.0005                 8.6109                 0.0000

                     91                     92                     93
                      A                      A                      A
 Frequencies --   1466.9146              1484.1330              1484.1588
 Red. masses --      2.1188                 1.0511                 1.0600
 Frc consts  --      2.6863                 1.3641                 1.3757
 IR Inten    --     30.1647                 0.1027                15.5784

                     94                     95                     96
                      A                      A                      A
 Frequencies --   1486.1214              1503.7054              1530.3333
 Red. masses --      1.0783                 1.1940                 2.4080
 Frc consts  --      1.4032                 1.5907                 3.3225
 IR Inten    --      0.0041                45.9753                 0.0001

                     97                     98                     99
                      A                      A                      A
 Frequencies --   1530.7968              1558.5342              1609.2577
 Red. masses --      2.4302                10.5156                 4.9889
 Frc consts  --      3.3553                15.0493                 7.6121
 IR Inten    --     40.8495                 4.7662                 0.0000

                    100                    101                    102
                      A                      A                      A
 Frequencies --   1609.7685              1641.2870              1643.2173
 Red. masses --      4.9841                 7.5905                 5.3412
 Frc consts  --      7.6097                12.0473                 8.4973
 IR Inten    --      0.1296                 0.0001                 0.0022

                    103                    104                    105
                      A                      A                      A
 Frequencies --   1643.3911              1694.5279              3026.7649
 Red. masses --      5.3345                11.5985                 1.0419
 Frc consts  --      8.4884                19.6223                 5.6240
 IR Inten    --     66.3106                 0.0000                43.3100

                    106                    107                    108
                      A                      A                      A
 Frequencies --   3026.8363              3085.8191              3085.8945
 Red. masses --      1.0420                 1.0927                 1.0926
 Frc consts  --      5.6244                 6.1302                 6.1304
 IR Inten    --      2.0227                 2.0911                22.5541

                    109                    110                    111
                      A                      A                      A
 Frequencies --   3119.8829              3119.9086              3156.3365
 Red. masses --      1.1034                 1.1034                 1.0854
 Frc consts  --      6.3280                 6.3279                 6.3710
 IR Inten    --      8.3691                10.2653                 1.1704

                    112                    113                    114
                      A                      A                      A
 Frequencies --   3156.3409              3163.8959              3163.8979
 Red. masses --      1.0854                 1.0874                 1.0874
 Frc consts  --      6.3710                 6.4135                 6.4135
 IR Inten    --      0.0104                 0.0272                 1.0557

                    115                    116                    117
                      A                      A                      A
 Frequencies --   3171.8662              3171.8694              3179.8277
 Red. masses --      1.0914                 1.0914                 1.0946
 Frc consts  --      6.4694                 6.4694                 6.5209
 IR Inten    --     17.2393                 0.2895                 0.0162

                    118                    119                    120
                      A                      A                      A
 Frequencies --   3179.8389              3187.3151              3187.3657
 Red. masses --      1.0946                 1.0983                 1.0983
 Frc consts  --      6.5210                 6.5740                 6.5742
 IR Inten    --     51.6421                39.2106                 0.0021

 - Thermochemistry -
 -------------------
 Temperature   298.150 Kelvin.  Pressure   1.00000 Atm.
 Atom     1 has atomic number  6 and mass  12.00000

 Molecular mass:   342.12347 amu.
 Principal axes and moments of inertia in atomic units:
                           1         2         3
     Eigenvalues --  2221.27664********************
           X            1.00000  -0.00001   0.00000
           Y            0.00001   1.00000  -0.00032
           Z           -0.00000   0.00032   1.00000
 This molecule is an asymmetric top.
 Rotational symmetry number  1.
 Warning -- assumption of classical behavior for rotation
           may cause significant error
 Rotational temperatures (Kelvin)      0.03899     0.00355     0.00325
 Rotational constants (GHZ):           0.81248     0.07388     0.06778
 Zero-point vibrational energy     844948.4 (Joules/Mol)
                                  201.94751 (Kcal/Mol)
 Warning -- explicit consideration of  31 degrees of freedom as
           vibrations may cause significant error
 Vibrational temperatures:     30.55    49.47    51.94    54.83    62.33
          (Kelvin)             62.95    81.32   107.64   162.11   193.52
                              260.69   268.82   281.47   287.24   300.28
                              312.38   315.10   392.87   458.60   526.77
                              540.90   567.64   588.14   588.27   655.62
                              658.58   659.72   670.96   786.15   812.84
                              831.40   910.52   910.87   949.91   967.69
                              979.78   984.28  1007.52  1022.54  1022.57
                             1023.91  1064.85  1079.68  1128.20  1128.31
                             1186.97  1192.76  1249.67  1249.71  1274.58
                             1365.14  1365.16  1389.50  1436.48  1436.49
                             1453.55  1453.61  1458.97  1458.98  1500.12
                             1501.96  1514.03  1515.90  1521.83  1554.02
                             1571.44  1576.72  1577.44  1585.03  1614.92
                             1652.57  1691.77  1715.20  1715.28  1744.31
                             1744.50  1757.22  1866.19  1902.56  1915.23
                             1940.82  1950.93  1950.94  1958.40  1985.50
                             2000.12  2040.85  2043.36  2063.03  2110.03
                             2110.56  2135.34  2135.37  2138.20  2163.50
                             2201.81  2202.48  2242.38  2315.36  2316.10
                             2361.45  2364.22  2364.47  2438.05  4354.84
                             4354.94  4439.81  4439.91  4488.82  4488.85
                             4541.26  4541.27  4552.14  4552.14  4563.61
                             4563.61  4575.06  4575.08  4585.84  4585.91

 Zero-point correction=                           0.321824 (Hartree/Particle)
 Thermal correction to Energy=                    0.343586
 Thermal correction to Enthalpy=                  0.344530
 Thermal correction to Gibbs Free Energy=         0.267728
 Sum of electronic and zero-point Energies=          -1122.601623
 Sum of electronic and thermal Energies=             -1122.579860
 Sum of electronic and thermal Enthalpies=           -1122.578916
 Sum of electronic and thermal Free Energies=        -1122.655719

                     E (Thermal)             CV                S
                      KCal/Mol        Cal/Mol-Kelvin    Cal/Mol-Kelvin
 Total                  215.603             83.048            161.645
 Electronic               0.000              0.000              0.000
 Translational            0.889              2.981             43.384
 Rotational               0.889              2.981             35.623
 Vibrational            213.826             77.086             82.638
 Vibration     1          0.593              1.985              6.516
 Vibration     2          0.594              1.983              5.559
 Vibration     3          0.594              1.982              5.462
 Vibration     4          0.594              1.982              5.355
 Vibration     5          0.595              1.980              5.101
 Vibration     6          0.595              1.980              5.082
 Vibration     7          0.596              1.975              4.575
 Vibration     8          0.599              1.966              4.022
 Vibration     9          0.607              1.939              3.222
 Vibration    10          0.613              1.919              2.881
 Vibration    11          0.630              1.865              2.316
 Vibration    12          0.632              1.858              2.259
 Vibration    13          0.636              1.846              2.174
 Vibration    14          0.638              1.840              2.136
 Vibration    15          0.642              1.827              2.055
 Vibration    16          0.646              1.815              1.983
 Vibration    17          0.647              1.812              1.967
 Vibration    18          0.676              1.723              1.577
 Vibration    19          0.705              1.638              1.317
 Vibration    20          0.739              1.542              1.096
 Vibration    21          0.747              1.521              1.055
 Vibration    22          0.761              1.482              0.983
 Vibration    23          0.773              1.451              0.931
 Vibration    24          0.773              1.451              0.931
 Vibration    25          0.814              1.348              0.779
 Vibration    26          0.816              1.344              0.773
 Vibration    27          0.817              1.342              0.770
 Vibration    28          0.824              1.325              0.748
 Vibration    29          0.902              1.148              0.552
 Vibration    30          0.921              1.107              0.514
 Vibration    31          0.934              1.079              0.489

 Normal termination of Gaussian 16 at Thu Jul 30 20:38:36 2020.
