 Gaussian 16, Revision C.01,
 Gaussian 16:  ES64L-G16RevC.01  3-Jul-2019

 ----------------------------------------------------------------------
 #P B3LYP/6-311++G(d,p) EmpiricalDispersion=GD3 freq(noraman) SCF=YQC N
 oSymm
 ----------------------------------------------------------------------

 ---------------------------------------------
 Restart from An_CarboxylicAnhydride_Imide.log
 ---------------------------------------------
 Symbolic Z-matrix:
 Charge =  0 Multiplicity = 1

                          Input orientation:
 ---------------------------------------------------------------------
 Center     Atomic      Atomic             Coordinates (Angstroms)
 Number     Number       Type             X           Y           Z
 ---------------------------------------------------------------------
      1          6           0        3.643481    0.569547   -0.121536
      2          6           0        3.593858   -0.822890    0.145565
      3          6           0        2.416218   -1.490634    0.279982
      4          6           0        1.196486   -0.753716    0.142260
      5          6           0        2.516332    1.317951   -0.263714
      6          6           0        1.247166    0.668161   -0.134251
      7          6           0       -0.049065   -1.376429    0.267638
      8          6           0       -1.247166   -0.668170    0.134210
      9          6           0        0.049065    1.376421   -0.267679
     10          6           0       -1.196486    0.753708   -0.142301
     11          6           0       -2.516332   -1.317960    0.263675
     12          6           0       -3.643481   -0.569555    0.121495
     13          6           0       -3.593858    0.822881   -0.145607
     14          6           0       -2.416219    1.490626   -0.280021
     15          1           0        2.395601   -2.554885    0.485341
     16          1           0        2.571555    2.380991   -0.468959
     17          1           0       -0.087022   -2.440880    0.474671
     18          1           0        0.087022    2.440872   -0.474712
     19          1           0       -2.571554   -2.380999    0.468920
     20          1           0       -2.395602    2.554877   -0.485380
     21          6           0        5.068829    0.978445   -0.205878
     22          6           0        4.986534   -1.330399    0.239535
     23          7           0        5.819818   -0.203712    0.019450
     24          8           0        5.363258   -2.456589    0.455062
     25          8           0        5.524802    2.075426   -0.418945
     26          6           0        7.246155   -0.253592    0.024182
     27          6           0        7.905859   -1.288445   -0.641633
     28          1           0        7.334814   -2.053695   -1.148861
     29          6           0        9.296925   -1.334629   -0.629087
     30          1           0        9.807534   -2.141488   -1.141832
     31          6           0       10.029230   -0.350672    0.033293
     32          1           0       11.112461   -0.388457    0.036822
     33          6           0        9.362963    0.682044    0.691140
     34          1           0        9.925190    1.451475    1.207399
     35          6           0        7.972007    0.732882    0.694594
     36          1           0        7.452360    1.536193    1.198220
     37          6           0       -5.068830   -0.978453    0.205836
     38          6           0       -4.986534    1.330390   -0.239579
     39          7           0       -5.819818    0.203707   -0.019474
     40          8           0       -5.363258    2.456585   -0.455082
     41          8           0       -5.524802   -2.075430    0.418926
     42          6           0       -7.246155    0.253595   -0.024171
     43          6           0       -7.905838    1.288452    0.641658
     44          1           0       -7.334777    2.053700    1.148870
     45          6           0       -9.296904    1.334643    0.629145
     46          1           0       -9.807497    2.141506    1.141901
     47          6           0      -10.029230    0.350689   -0.033215
     48          1           0      -11.112460    0.388478   -0.036718
     49          6           0       -9.362983   -0.682033   -0.691075
     50          1           0       -9.925226   -1.451463   -1.207318
     51          6           0       -7.972028   -0.732878   -0.694562
     52          1           0       -7.452397   -1.536194   -1.198199
 ---------------------------------------------------------------------

 SCF Done:  E(RB3LYP) =  -1563.76896866     a.u. after    9 cycles
 SCF Done:  E(RB3LYP) =  -1563.76899529     A.U. after   10 cycles

 Alpha  occ. eigenvalues --  -19.13485 -19.13485 -19.13484 -19.13484 -14.38890
 Alpha  occ. eigenvalues --  -14.38890 -10.31370 -10.31370 -10.31370 -10.31370
 Alpha  occ. eigenvalues --  -10.23399 -10.23399 -10.23165 -10.23164 -10.23127
 Alpha  occ. eigenvalues --  -10.23126 -10.22423 -10.22422 -10.22422 -10.22422
 Alpha  occ. eigenvalues --  -10.22094 -10.22094 -10.22047 -10.22047 -10.21960
 Alpha  occ. eigenvalues --  -10.21959 -10.18904 -10.18904 -10.18903 -10.18903
 Alpha  occ. eigenvalues --  -10.18715 -10.18715 -10.18701 -10.18701 -10.18595
 Alpha  occ. eigenvalues --  -10.18595  -1.09354  -1.09353  -1.07597  -1.07597
 Alpha  occ. eigenvalues --   -0.98512  -0.98507  -0.93013  -0.90695  -0.88120
 Alpha  occ. eigenvalues --   -0.87041  -0.85336  -0.83263  -0.81439  -0.80459
 Alpha  occ. eigenvalues --   -0.77825  -0.76414  -0.76413  -0.75945  -0.75658
 Alpha  occ. eigenvalues --   -0.71593  -0.69835  -0.67947  -0.67696  -0.64939
 Alpha  occ. eigenvalues --   -0.64571  -0.63206  -0.62809  -0.62216  -0.61832
 Alpha  occ. eigenvalues --   -0.59126  -0.58966  -0.57553  -0.55652  -0.54464
 Alpha  occ. eigenvalues --   -0.54387  -0.52189  -0.51533  -0.50276  -0.49962
 Alpha  occ. eigenvalues --   -0.49913  -0.49725  -0.49631  -0.48604  -0.48382
 Alpha  occ. eigenvalues --   -0.48357  -0.47358  -0.46435  -0.46332  -0.46112
 Alpha  occ. eigenvalues --   -0.45888  -0.45712  -0.45057  -0.44979  -0.44441
 Alpha  occ. eigenvalues --   -0.44135  -0.43712  -0.43666  -0.43433  -0.42034
 Alpha  occ. eigenvalues --   -0.42019  -0.40503  -0.40368  -0.40034  -0.38790
 Alpha  occ. eigenvalues --   -0.38403  -0.38029  -0.37862  -0.37687  -0.36638
 Alpha  occ. eigenvalues --   -0.36634  -0.34549  -0.34502  -0.32050  -0.32045
 Alpha  occ. eigenvalues --   -0.31116  -0.31043  -0.30511  -0.29164  -0.28968
 Alpha  occ. eigenvalues --   -0.28825  -0.26775  -0.26773  -0.25625  -0.25311
 Alpha  occ. eigenvalues --   -0.24526
 Alpha virt. eigenvalues --   -0.12049  -0.10834  -0.07915  -0.06564  -0.03316
 Alpha virt. eigenvalues --   -0.02507  -0.02499  -0.02456  -0.02206  -0.01605
 Alpha virt. eigenvalues --   -0.00878  -0.00819  -0.00643  -0.00458   0.00298

 Mulliken charges:
               1
     1  C    0.636994
     2  C    0.637023
     3  C   -0.520341
     4  C   -0.308285
     5  C   -0.520339
     6  C   -0.308246
     7  C   -0.053723
     8  C   -0.308245
     9  C   -0.053720
    10  C   -0.308288
    11  C   -0.520339
    12  C    0.636988
    13  C    0.637031
    14  C   -0.520339
    15  H    0.191222
    16  H    0.191230
    17  H    0.098672
    18  H    0.098672
    19  H    0.191230
    20  H    0.191222
    21  C   -0.040435
    22  C   -0.040341
    23  N    0.396805
    24  O   -0.259413
    25  O   -0.259372
    26  C   -0.611829
    27  C    0.249942
    28  H    0.203078
    29  C   -0.161063
    30  H    0.179043
    31  C   -0.333682
    32  H    0.161456
    33  C   -0.160666
    34  H    0.179050
    35  C    0.250142
    36  H    0.203076
    37  C   -0.040431
    38  C   -0.040344
    39  N    0.396804
    40  O   -0.259413
    41  O   -0.259372
    42  C   -0.611822
    43  C    0.249979
    44  H    0.203078
    45  C   -0.161087
    46  H    0.179043
    47  C   -0.333684
    48  H    0.161456
    49  C   -0.160643
    50  H    0.179050
    51  C    0.250101
    52  H    0.203076
 Sum of Mulliken charges =  -0.00000

 Dipole moment (field-independent basis, Debye):
    X=             -0.0000    Y=             -0.0000    Z=             -0.0000  Tot=              0.0000
 Quadrupole moment (field-independent basis, Debye-Ang):
   XX=           -202.3615   YY=           -214.7083   ZZ=           -206.9488
   XY=             -0.4654   XZ=              0.4137   YZ=             11.3577

  Exact polarizability:     875.127     -18.712     341.270       2.427       5.046     197.023
 Approx polarizability:    1083.329     -14.070     681.814       2.597       3.798     337.991

                      1                      2                      3
                      A                      A                      A
 Frequencies --     13.8906                30.6123                35.7194
 Red. masses --      6.4830                 7.2580                 5.1800
 Frc consts  --      0.0007                 0.0040                 0.0039
 IR Inten    --      0.0043                 0.0000                 0.0594

                      4                      5                      6
                      A                      A                      A
 Frequencies --     44.3261                56.3286                59.8979
 Red. masses --      6.1792                 4.0366                 8.1675
 Frc consts  --      0.0072                 0.0075                 0.0173
 IR Inten    --      0.0822                 0.0000                 3.6960

                      7                      8                      9
                      A                      A                      A
 Frequencies --     66.7207                73.4530               114.3537
 Red. masses --      6.1865                 6.0991                 6.1925
 Frc consts  --      0.0162                 0.0194                 0.0477
 IR Inten    --      0.6770                 0.0000                 0.0000

                     10                     11                     12
                      A                      A                      A
 Frequencies --    118.6813               120.9119               151.5699
 Red. masses --      8.9091                 7.3438                 8.7655
 Frc consts  --      0.0739                 0.0633                 0.1186
 IR Inten    --      0.0000                 4.9858                 0.0000

                     13                     14                     15
                      A                      A                      A
 Frequencies --    153.7469               163.8074               194.2309
 Red. masses --      8.2069                 8.7769                 8.2435
 Frc consts  --      0.1143                 0.1388                 0.1832
 IR Inten    --      0.0000                 7.3712                 0.0000

                     16                     17                     18
                      A                      A                      A
 Frequencies --    200.2473               203.8786               265.5086
 Red. masses --      5.0631                 8.1555                 6.8308
 Frc consts  --      0.1196                 0.1997                 0.2837
 IR Inten    --      0.1098                 1.5872                 0.9374

                     19                     20                     21
                      A                      A                      A
 Frequencies --    268.8385               269.7721               283.3263
 Red. masses --      6.1047                 7.4397                 6.6444
 Frc consts  --      0.2600                 0.3190                 0.3143
 IR Inten    --      0.0000                 8.9871                 1.6738

                     22                     23                     24
                      A                      A                      A
 Frequencies --    300.3517               303.6333               326.8522
 Red. masses --      6.2764                10.8171                 5.0346
 Frc consts  --      0.3336                 0.5876                 0.3169
 IR Inten    --      0.0000                 0.0000                 0.0000

                     25                     26                     27
                      A                      A                      A
 Frequencies --    353.9959               377.8211               396.4294
 Red. masses --     11.5186                 3.7635                 6.3679
 Frc consts  --      0.8504                 0.3165                 0.5896
 IR Inten    --     34.1302                 0.7561                 0.0000

                     28                     29                     30
                      A                      A                      A
 Frequencies --    408.2325               415.8978               415.9131
 Red. masses --      5.0457                 2.9108                 2.9105
 Frc consts  --      0.4954                 0.2966                 0.2966
 IR Inten    --      2.1390                 0.3324                 0.0000

                     31                     32                     33
                      A                      A                      A
 Frequencies --    420.3801               479.2742               483.4871
 Red. masses --      5.8494                 2.5971                 3.2861
 Frc consts  --      0.6090                 0.3515                 0.4526
 IR Inten    --      0.0000                21.5288                 0.0000

                     34                     35                     36
                      A                      A                      A
 Frequencies --    486.6702               516.7237               518.2095
 Red. masses --      9.5893                 3.6721                 3.3395
 Frc consts  --      1.3382                 0.5777                 0.5284
 IR Inten    --      0.0000                 0.0000                19.2963

                     37                     38                     39
                      A                      A                      A
 Frequencies --    534.9321               542.5881               567.1895
 Red. masses --      6.4907                11.6497                10.3469
 Frc consts  --      1.0943                 2.0207                 1.9612
 IR Inten    --      0.0000                 0.1423                 1.0946

                     40                     41                     42
                      A                      A                      A
 Frequencies --    585.7832               609.3272               615.7676
 Red. masses --      7.8460                 7.0394                 9.8407
 Frc consts  --      1.5863                 1.5399                 2.1984
 IR Inten    --      0.0000                25.2218                 0.0000

                     43                     44                     45
                      A                      A                      A
 Frequencies --    627.3927               630.8002               632.2857
 Red. masses --      9.7866                 6.3671                 6.4527
 Frc consts  --      2.2697                 1.4927                 1.5199
 IR Inten    --    141.1760                 0.0000                 2.4090

                     46                     47                     48
                      A                      A                      A
 Frequencies --    639.9360               672.6801               697.8182
 Red. masses --      7.8106                 6.1844                 2.2433
 Frc consts  --      1.8846                 1.6488                 0.6436
 IR Inten    --      0.0000                 0.0000                35.5533

                     49                     50                     51
                      A                      A                      A
 Frequencies --    699.2869               713.3184               716.4385
 Red. masses --      1.9885                 6.6578                 7.2845
 Frc consts  --      0.5729                 1.9959                 2.2030
 IR Inten    --      0.0000                 0.0000                 2.8747

                     52                     53                     54
                      A                      A                      A
 Frequencies --    720.1218               733.0809               746.6693
 Red. masses --      4.3608                 5.6769                 5.2206
 Frc consts  --      1.3324                 1.7975                 1.7149
 IR Inten    --     76.5936                 0.2620                16.9435

                     55                     56                     57
                      A                      A                      A
 Frequencies --    749.2242               759.6070               765.7911
 Red. masses --      4.0194                 6.0707                 3.8908
 Frc consts  --      1.3293                 2.0638                 1.3444
 IR Inten    --      0.0000                 0.0000                 0.0000

                     58                     59                     60
                      A                      A                      A
 Frequencies --    769.4393               772.6731               786.9168
 Red. masses --      2.3078                 2.0804                 6.7845
 Frc consts  --      0.8050                 0.7318                 2.4753
 IR Inten    --      0.0000                89.9373                 2.4276

                     61                     62                     63
                      A                      A                      A
 Frequencies --    786.9560               815.0859               843.1658
 Red. masses --      6.1398                 4.8758                 1.2527
 Frc consts  --      2.2403                 1.9086                 0.5247
 IR Inten    --      0.0000                46.1662                 0.0000

                     64                     65                     66
                      A                      A                      A
 Frequencies --    843.3421               848.4538               877.4945
 Red. masses --      1.2526                 7.6253                 1.4455
 Frc consts  --      0.5249                 3.2342                 0.6558
 IR Inten    --      0.0126                 0.0000                 2.3980

                     67                     68                     69
                      A                      A                      A
 Frequencies --    881.2381               884.4905               885.0346
 Red. masses --      5.2214                 1.9100                 2.3787
 Frc consts  --      2.3890                 0.8804                 1.0978
 IR Inten    --     21.9018                 0.0000                 0.0000

                     70                     71                     72
                      A                      A                      A
 Frequencies --    913.9849               925.3393               925.9693
 Red. masses --      3.3970                 1.4285                 1.4370
 Frc consts  --      1.6719                 0.7207                 0.7259
 IR Inten    --     50.8001                 0.7039                 0.0000

                     73                     74                     75
                      A                      A                      A
 Frequencies --    926.4345               933.2578               935.8835
 Red. masses --      1.4582                 1.5423                 1.5078
 Frc consts  --      0.7374                 0.7914                 0.7781
 IR Inten    --     11.9520                 0.0000                 0.0000

                     76                     77                     78
                      A                      A                      A
 Frequencies --    956.5635               981.5593               981.5667
 Red. masses --      1.5753                 1.3720                 1.3720
 Frc consts  --      0.8492                 0.7788                 0.7789
 IR Inten    --     55.7739                 0.0144                 0.0001

                     79                     80                     81
                      A                      A                      A
 Frequencies --   1001.5153              1001.5385              1018.4151
 Red. masses --      1.2906                 1.2907                 6.1647
 Frc consts  --      0.7627                 0.7628                 3.7671
 IR Inten    --      0.7236                 0.0001                 3.7503

                     82                     83                     84
                      A                      A                      A
 Frequencies --   1018.4380              1051.6641              1051.7446
 Red. masses --      6.1679                 2.2831                 2.2805
 Frc consts  --      3.7693                 1.4877                 1.4863
 IR Inten    --      0.0000                 8.2320                 0.0000

                     85                     86                     87
                      A                      A                      A
 Frequencies --   1087.4811              1089.0298              1112.2194
 Red. masses --      3.9749                 3.7464                 5.5860
 Frc consts  --      2.7696                 2.6178                 4.0713
 IR Inten    --     72.3098                 0.0000                92.5506

                     88                     89                     90
                      A                      A                      A
 Frequencies --   1122.7769              1125.0725              1130.2610
 Red. masses --      2.4168                 2.3060                 2.1384
 Frc consts  --      1.7950                 1.7197                 1.6095
 IR Inten    --      5.0913                 0.0000                 0.0000

                     91                     92                     93
                      A                      A                      A
 Frequencies --   1131.8107              1140.8240              1176.0801
 Red. masses --      2.3743                 3.8518                 1.9136
 Frc consts  --      1.7920                 2.9536                 1.5595
 IR Inten    --    204.8674                 0.0000                21.4564

                     94                     95                     96
                      A                      A                      A
 Frequencies --   1193.5358              1193.5622              1195.4406
 Red. masses --      1.1282                 1.1197                 2.2874
 Frc consts  --      0.9469                 0.9399                 1.9260
 IR Inten    --      0.0000                 0.0418                 0.0000

                     97                     98                     99
                      A                      A                      A
 Frequencies --   1209.0550              1212.1483              1217.9884
 Red. masses --      1.9757                 1.5456                 1.3743
 Frc consts  --      1.7016                 1.3380                 1.2012
 IR Inten    --      0.0000               191.7137                 0.0000

                    100                    101                    102
                      A                      A                      A
 Frequencies --   1220.7760              1260.9429              1287.3283
 Red. masses --      2.0087                 1.3408                 2.3100
 Frc consts  --      1.7637                 1.2560                 2.2555
 IR Inten    --    167.8508                 4.8773                 0.0000

                    103                    104                    105
                      A                      A                      A
 Frequencies --   1289.7436              1299.5523              1333.2275
 Red. masses --      5.4040                 7.6666                 2.5514
 Frc consts  --      5.2963                 7.6285                 2.6720
 IR Inten    --      0.0000                 4.6748                 0.0000

                    106                    107                    108
                      A                      A                      A
 Frequencies --   1333.4530              1333.7294              1363.2915
 Red. masses --      5.2943                 1.8989                 1.3856
 Frc consts  --      5.5465                 1.9901                 1.5173
 IR Inten    --      4.0349                 0.0000                 0.7693

                    109                    110                    111
                      A                      A                      A
 Frequencies --   1363.3047              1367.8447              1374.3687
 Red. masses --      1.3858                 7.6106                 8.3565
 Frc consts  --      1.5175                 8.3896                 9.3000
 IR Inten    --      0.0003              1412.3314                 0.0000

                    112                    113                    114
                      A                      A                      A
 Frequencies --   1374.6529              1443.7178              1454.4335
 Red. masses --      8.8174                 2.0374                 7.4044
 Frc consts  --      9.8170                 2.5020                 9.2284
 IR Inten    --    204.7399                40.4028                 0.0000

                    115                    116                    117
                      A                      A                      A
 Frequencies --   1466.7823              1471.6831              1486.5080
 Red. masses --      3.2903                 8.6056                 2.2735
 Frc consts  --      4.1708                10.9815                 2.9599
 IR Inten    --     99.8940                 3.1188                 0.0002

                    118                    119                    120
                      A                      A                      A
 Frequencies --   1486.5237              1496.5150              1529.7113
 Red. masses --      2.2753                 4.1135                 2.2374
 Frc consts  --      2.9624                 5.4277                 3.0848
 IR Inten    --     11.3231                 0.0000               193.9209

                    121                    122                    123
                      A                      A                      A
 Frequencies --   1530.0209              1624.8615              1628.2058
 Red. masses --      2.2484                 7.4510                 5.8073
 Frc consts  --      3.1011                11.5904                 9.0707
 IR Inten    --      0.0001               154.7241                 0.0011

                    124                    125                    126
                      A                      A                      A
 Frequencies --   1628.2198              1633.1731              1642.2711
 Red. masses --      5.8079                 8.0127                 5.5101
 Frc consts  --      9.0718                12.5920                 8.7559
 IR Inten    --      3.3241                 0.0000                 6.9010

                    127                    128                    129
                      A                      A                      A
 Frequencies --   1643.3692              1643.3985              1671.3166
 Red. masses --      6.3953                 6.0070                 7.8448
 Frc consts  --     10.1761                 9.5586                12.9107
 IR Inten    --      0.0000                 0.0000                 0.0000

                    130                    131                    132
                      A                      A                      A
 Frequencies --   1683.7187              1774.6054              1775.2204
 Red. masses --      7.9609                12.7766                12.7552
 Frc consts  --     13.2969                23.7067                23.6833
 IR Inten    --     20.9295                 0.0011              1140.5947

                    133                    134                    135
                      A                      A                      A
 Frequencies --   1819.6298              1824.8288              3165.5346
 Red. masses --     13.0134                13.0029                 1.0907
 Frc consts  --     25.3868                25.5114                 6.4396
 IR Inten    --    629.3710                 0.0000                 6.3447

                    136                    137                    138
                      A                      A                      A
 Frequencies --   3166.0471              3166.0512              3167.1874
 Red. masses --      1.0862                 1.0862                 1.0910
 Frc consts  --      6.4147                 6.4147                 6.4481
 IR Inten    --      0.2213                 0.0308                 0.0000

                    139                    140                    141
                      A                      A                      A
 Frequencies --   3177.6420              3177.6452              3184.3157
 Red. masses --      1.0904                 1.0904                 1.0922
 Frc consts  --      6.4869                 6.4869                 6.5252
 IR Inten    --      6.5833                16.1877                 0.0001

                    142                    143                    144
                      A                      A                      A
 Frequencies --   3184.6843              3185.2800              3185.8272
 Red. masses --      1.0924                 1.0919                 1.0920
 Frc consts  --      6.5277                 6.5273                 6.5302
 IR Inten    --      1.7107                 0.0632                 0.0000

                    145                    146                    147
                      A                      A                      A
 Frequencies --   3189.2323              3189.2585              3213.0601
 Red. masses --      1.0955                 1.0955                 1.0932
 Frc consts  --      6.5652                 6.5652                 6.6496
 IR Inten    --     59.9379                 0.2073                 2.5944

                    148                    149                    150
                      A                      A                      A
 Frequencies --   3213.0631              3213.6726              3213.6758
 Red. masses --      1.0932                 1.0946                 1.0946
 Frc consts  --      6.6496                 6.6602                 6.6602
 IR Inten    --      2.3790                 0.0935                 0.0623

 - Thermochemistry -
 -------------------
 Temperature   298.150 Kelvin.  Pressure   1.00000 Atm.
 Atom     1 has atomic number  6 and mass  12.00000

 Molecular mass:   468.11101 amu.
 Principal axes and moments of inertia in atomic units:
                           1         2         3
     Eigenvalues --  2920.85594********************
           X            0.99938   0.03510  -0.00134
           Y           -0.03496   0.99778   0.05665
           Z            0.00332  -0.05657   0.99839
 This molecule is an asymmetric top.
 Rotational symmetry number  1.
 Warning -- assumption of classical behavior for rotation
           may cause significant error
 Rotational temperatures (Kelvin)      0.02965     0.00143     0.00138
 Rotational constants (GHZ):           0.61788     0.02989     0.02875
 Zero-point vibrational energy    1008226.4 (Joules/Mol)
                                  240.97189 (Kcal/Mol)
 Warning -- explicit consideration of  42 degrees of freedom as
           vibrations may cause significant error
 Vibrational temperatures:     19.99    44.04    51.39    63.78    81.04
          (Kelvin)             86.18    96.00   105.68   164.53   170.76
                              173.97   218.08   221.21   235.68   279.45
                              288.11   293.34   382.01   386.80   388.14
                              407.64   432.14   436.86   470.27   509.32
                              543.60   570.37   587.36   598.38   598.41
                              604.83   689.57   695.63   700.21   743.45
                              745.59   769.65   780.66   816.06   842.81
                              876.69   885.95   902.68   907.58   909.72
                              920.73   967.84  1004.00  1006.12  1026.31
                             1030.80  1036.09  1054.74  1074.29  1077.97
                             1092.91  1101.80  1107.05  1111.70  1132.20
                             1132.25  1172.73  1213.13  1213.38  1220.74
                             1262.52  1267.91  1272.58  1273.37  1315.02
                             1331.36  1332.26  1332.93  1342.75  1346.53
                             1376.28  1412.24  1412.26  1440.96  1440.99
                             1465.27  1465.31  1513.11  1513.23  1564.64
                             1566.87  1600.24  1615.43  1618.73  1626.19
                             1628.42  1641.39  1692.12  1717.23  1717.27
                             1719.97  1739.56  1744.01  1752.41  1756.42
                             1814.22  1852.18  1855.65  1869.77  1918.22
                             1918.54  1918.94  1961.47  1961.49  1968.02
                             1977.41  1977.82  2077.19  2092.61  2110.37
                             2117.42  2138.75  2138.78  2153.15  2200.91
                             2201.36  2337.81  2342.63  2342.65  2349.77
                             2362.86  2364.44  2364.48  2404.65  2422.50
                             2553.26  2554.15  2618.04  2625.52  4554.50
                             4555.24  4555.24  4556.88  4571.92  4571.92
                             4581.52  4582.05  4582.91  4583.69  4588.59
                             4588.63  4622.88  4622.88  4623.76  4623.76

 Zero-point correction=                           0.384013 (Hartree/Particle)
 Thermal correction to Energy=                    0.410353
 Thermal correction to Enthalpy=                  0.411297
 Thermal correction to Gibbs Free Energy=         0.325833
 Sum of electronic and zero-point Energies=          -1563.384982
 Sum of electronic and thermal Energies=             -1563.358643
 Sum of electronic and thermal Enthalpies=           -1563.357698
 Sum of electronic and thermal Free Energies=        -1563.443163

                     E (Thermal)             CV                S
                      KCal/Mol        Cal/Mol-Kelvin    Cal/Mol-Kelvin
 Total                  257.500            106.141            179.875
 Electronic               0.000              0.000              0.000
 Translational            0.889              2.981             44.319
 Rotational               0.889              2.981             37.646
 Vibrational            255.723            100.179             97.910
 Vibration     1          0.593              1.986              7.358
 Vibration     2          0.594              1.984              5.789
 Vibration     3          0.594              1.982              5.483
 Vibration     4          0.595              1.980              5.056
 Vibration     5          0.596              1.975              4.582
 Vibration     6          0.597              1.973              4.461
 Vibration     7          0.598              1.970              4.248
 Vibration     8          0.599              1.967              4.059
 Vibration     9          0.607              1.938              3.194
 Vibration    10          0.609              1.934              3.122
 Vibration    11          0.609              1.932              3.086
 Vibration    12          0.619              1.901              2.652
 Vibration    13          0.619              1.899              2.625
 Vibration    14          0.623              1.887              2.505
 Vibration    15          0.635              1.848              2.187
 Vibration    16          0.638              1.840              2.131
 Vibration    17          0.640              1.834              2.098
 Vibration    18          0.671              1.736              1.625
 Vibration    19          0.673              1.730              1.604
 Vibration    20          0.674              1.729              1.598
 Vibration    21          0.682              1.705              1.514
 Vibration    22          0.693              1.673              1.415
 Vibration    23          0.695              1.667              1.397
 Vibration    24          0.711              1.622              1.276
 Vibration    25          0.730              1.567              1.148
 Vibration    26          0.748              1.517              1.048
 Vibration    27          0.763              1.478              0.976
 Vibration    28          0.773              1.452              0.933
 Vibration    29          0.779              1.436              0.906
 Vibration    30          0.779              1.436              0.906
 Vibration    31          0.783              1.426              0.891
 Vibration    32          0.836              1.296              0.712
 Vibration    33          0.840              1.287              0.701
 Vibration    34          0.843              1.280              0.692
 Vibration    35          0.872              1.213              0.618
 Vibration    36          0.873              1.210              0.614
 Vibration    37          0.890              1.173              0.576
 Vibration    38          0.898              1.156              0.560
 Vibration    39          0.923              1.102              0.510
 Vibration    40          0.943              1.062              0.475
 Vibration    41          0.968              1.012              0.434
 Vibration    42          0.975              0.999              0.423

 Optimization completed.
    -- Stationary point found.
 Normal termination of Gaussian 16 at Wed Jan 13 12:53:08 2021.
