 Gaussian 16, Revision C.01,
 Gaussian 16:  ES64L-G16RevC.01  3-Jul-2019

 ----------------------------------------------------------------------
 #P B3LYP/6-311++G(d,p) EmpiricalDispersion=GD3 freq(noraman) SCF=(YQC,
 IntRep) NoSymm
 ----------------------------------------------------------------------

 ------------------------------------------------
 Restart from Borazine_None_Borazine_freq_opt.log
 ------------------------------------------------
 Symbolic Z-matrix:
 Charge =  0 Multiplicity = 1

                          Input orientation:
 ---------------------------------------------------------------------
 Center     Atomic      Atomic             Coordinates (Angstroms)
 Number     Number       Type             X           Y           Z
 ---------------------------------------------------------------------
      1          5           0        1.444490    0.000024   -0.000008
      2          7           0        0.714957   -1.237608   -0.000042
      3          7           0        0.714910    1.237627    0.000028
      4          1           0        2.630579    0.000047   -0.000003
      5          5           0       -0.721639    1.250575    0.000333
      6          5           0       -0.721591   -1.250611   -0.000349
      7          7           0       -1.428633   -0.000031   -0.000006
      8          1           0       -1.314636   -2.277791   -0.000533
      9          1           0       -1.314724    2.277733    0.000531
     10          6           0        1.432372   -2.480248    0.000195
     11          6           0        1.432279    2.480294   -0.000199
     12          6           0       -2.863518   -0.000058    0.000000
     13          6           0        1.149517   -3.458623    0.956858
     14          6           0        2.420968    2.725078    0.956361
     15          6           0       -3.569623    0.732692    0.957564
     16          6           0       -4.962580    0.735081    0.953338
     17          1           0       -3.022913    1.292692    1.707044
     18          6           0        3.119324    3.930332    0.951968
     19          1           0        2.633589    1.971256    1.705193
     20          6           0        1.843669   -4.666302    0.952725
     21          1           0        0.390297   -3.265502    1.705524
     22          6           0       -3.569605   -0.732827   -0.957563
     23          6           0        1.149398    3.458660   -0.956864
     24          6           0        2.421074   -2.725002   -0.956360
     25          6           0        2.832899   -4.907006    0.000469
     26          1           0        1.615018   -5.416539    1.701426
     27          6           0        3.119470   -3.930232   -0.951960
     28          1           0        2.633674   -1.971175   -1.705194
     29          6           0        2.832725    4.907098   -0.000460
     30          1           0        3.883348    4.107872    1.700590
     31          6           0        1.843510    4.666362   -0.952725
     32          1           0        0.390191    3.265513   -1.705536
     33          6           0       -4.962561   -0.735260   -0.953330
     34          1           0       -3.022882   -1.292806   -1.707048
     35          6           0       -5.665415   -0.000102    0.000007
     36          1           0       -5.498169    1.307075    1.702774
     37          1           0       -5.498137   -1.307270   -1.702764
     38          1           0       -6.749278   -0.000119    0.000009
     39          1           0        3.374663   -5.845756    0.000576
     40          1           0        3.883505   -4.107748   -1.700578
     41          1           0        1.614840    5.416592   -1.701427
     42          1           0        3.374458    5.845866   -0.000563
 ---------------------------------------------------------------------

 SCF Done:  E(RB3LYP) =  -936.075176169     a.u. after    6 cycles
 SCF Done:  E(RB3LYP) =  -936.075196610     A.U. after    9 cycles

 Alpha  occ. eigenvalues --  -14.32093 -14.32092 -14.32091 -10.21922 -10.21922
 Alpha  occ. eigenvalues --  -10.21921 -10.18104 -10.18104 -10.18104 -10.18101
 Alpha  occ. eigenvalues --  -10.18100 -10.18100 -10.17874 -10.17874 -10.17874
 Alpha  occ. eigenvalues --  -10.17874 -10.17874 -10.17874 -10.17747 -10.17746
 Alpha  occ. eigenvalues --  -10.17746  -6.75531  -6.75530  -6.75529  -0.94041
 Alpha  occ. eigenvalues --   -0.91233  -0.91233  -0.85488  -0.84415  -0.84415
 Alpha  occ. eigenvalues --   -0.75533  -0.75533  -0.75524  -0.74987  -0.73151
 Alpha  occ. eigenvalues --   -0.73150  -0.62662  -0.62131  -0.62130  -0.61871
 Alpha  occ. eigenvalues --   -0.60152  -0.60152  -0.55236  -0.55031  -0.55031
 Alpha  occ. eigenvalues --   -0.52179  -0.52179  -0.49628  -0.49073  -0.47098
 Alpha  occ. eigenvalues --   -0.47098  -0.46038  -0.46038  -0.45810  -0.44939
 Alpha  occ. eigenvalues --   -0.43516  -0.43516  -0.43038  -0.42980  -0.42980
 Alpha  occ. eigenvalues --   -0.40391  -0.38714  -0.37808  -0.37807  -0.37136
 Alpha  occ. eigenvalues --   -0.36478  -0.36478  -0.36355  -0.36034  -0.36034
 Alpha  occ. eigenvalues --   -0.34817  -0.33851  -0.33851  -0.30597  -0.30596
 Alpha  occ. eigenvalues --   -0.26221  -0.26221  -0.26165  -0.25232  -0.24167
 Alpha  occ. eigenvalues --   -0.24166
 Alpha virt. eigenvalues --   -0.02750  -0.02748  -0.02183  -0.01820  -0.01820
 Alpha virt. eigenvalues --   -0.01706  -0.00674  -0.00353  -0.00351  -0.00188
 Alpha virt. eigenvalues --   -0.00187   0.00535   0.01400   0.01401   0.01407

 Mulliken charges:
               1
     1  B    0.195203
     2  N   -0.107811
     3  N   -0.107812
     4  H   -0.061799
     5  B    0.195307
     6  B    0.195306
     7  N   -0.107824
     8  H   -0.061866
     9  H   -0.061866
    10  C   -0.297895
    11  C   -0.297888
    12  C   -0.296987
    13  C    0.093834
    14  C    0.093385
    15  C    0.093376
    16  C   -0.161007
    17  H    0.166362
    18  C   -0.160941
    19  H    0.166388
    20  C   -0.160548
    21  H    0.166375
    22  C    0.093371
    23  C    0.093830
    24  C    0.093385
    25  C   -0.445079
    26  H    0.184178
    27  C   -0.160938
    28  H    0.166388
    29  C   -0.445078
    30  H    0.184178
    31  C   -0.160548
    32  H    0.166375
    33  C   -0.161005
    34  H    0.166362
    35  C   -0.444979
    36  H    0.184181
    37  H    0.184182
    38  H    0.150526
    39  H    0.150512
    40  H    0.184178
    41  H    0.184178
    42  H    0.150512
 Sum of Mulliken charges =   0.00000

 Dipole moment (field-independent basis, Debye):
    X=             -0.0007    Y=              0.0000    Z=             -0.0000  Tot=              0.0007
 Quadrupole moment (field-independent basis, Debye-Ang):
   XX=           -134.6489   YY=           -134.6576   ZZ=           -136.0142
   XY=              0.0000   XZ=              0.0000   YZ=             -0.0020

  Exact polarizability:     309.192      -0.000     309.188      -0.000      -0.009     202.147
 Approx polarizability:     428.714       0.000     428.671      -0.000      -0.014     357.107

                      1                      2                      3
                      A                      A                      A
 Frequencies --     39.1630                40.4291                41.3409
 Red. masses --      3.7220                 3.8144                 5.1123
 Frc consts  --      0.0034                 0.0037                 0.0051
 IR Inten    --      0.1440                 0.1594                 0.2431

                      4                      5                      6
                      A                      A                      A
 Frequencies --     48.2425                56.2726                56.4193
 Red. masses --      3.6816                 5.2821                 5.2812
 Frc consts  --      0.0050                 0.0099                 0.0099
 IR Inten    --      0.0003                 0.1847                 0.1897

                      7                      8                      9
                      A                      A                      A
 Frequencies --    109.9593               110.1501               139.7888
 Red. masses --      4.6160                 4.6094                 4.4854
 Frc consts  --      0.0329                 0.0330                 0.0516
 IR Inten    --      1.0830                 1.0894                 0.2436

                     10                     11                     12
                      A                      A                      A
 Frequencies --    224.9582               224.9587               234.1467
 Red. masses --      4.1465                 4.1386                 6.6582
 Frc consts  --      0.1236                 0.1234                 0.2151
 IR Inten    --      0.0101                 0.0088                 0.0000

                     13                     14                     15
                      A                      A                      A
 Frequencies --    266.9946               267.4104               326.8836
 Red. masses --      3.2495                 3.2461                 4.7648
 Frc consts  --      0.1365                 0.1368                 0.3000
 IR Inten    --      4.2202                 4.2176                 0.1564

                     16                     17                     18
                      A                      A                      A
 Frequencies --    339.0717               339.1226               406.2299
 Red. masses --      5.6968                 5.6988                 2.6425
 Frc consts  --      0.3859                 0.3861                 0.2569
 IR Inten    --      1.2319                 1.2294                 2.2911

                     19                     20                     21
                      A                      A                      A
 Frequencies --    421.9501               422.1834               422.2373
 Red. masses --      2.9357                 2.9468                 2.9480
 Frc consts  --      0.3080                 0.3095                 0.3097
 IR Inten    --      0.0286                 0.4390                 0.4691

                     22                     23                     24
                      A                      A                      A
 Frequencies --    481.6186               481.6444               496.7052
 Red. masses --      5.5922                 5.5887                 2.6969
 Frc consts  --      0.7643                 0.7639                 0.3920
 IR Inten    --      0.0648                 0.0668                 0.1071

                     25                     26                     27
                      A                      A                      A
 Frequencies --    539.3181               539.4130               585.1103
 Red. masses --      3.1084                 3.1080                 3.1447
 Frc consts  --      0.5327                 0.5328                 0.6343
 IR Inten    --     10.5972                10.5820                13.7849

                     28                     29                     30
                      A                      A                      A
 Frequencies --    599.0142               599.0500               633.1861
 Red. masses --      7.9365                 7.9373                 6.3795
 Frc consts  --      1.6779                 1.6782                 1.5070
 IR Inten    --     12.9632                12.9684                 0.1767

                     31                     32                     33
                      A                      A                      A
 Frequencies --    634.5180               634.5518               673.4094
 Red. masses --      6.4138                 6.4134                 7.0083
 Frc consts  --      1.5214                 1.5215                 1.8725
 IR Inten    --      0.2880                 0.2889                 0.0000

                     34                     35                     36
                      A                      A                      A
 Frequencies --    710.4788               710.5787               710.9969
 Red. masses --      1.7870                 1.7883                 1.6829
 Frc consts  --      0.5315                 0.5320                 0.5012
 IR Inten    --     38.7971                38.6675                46.4057

                     37                     38                     39
                      A                      A                      A
 Frequencies --    771.7988               771.8233               783.7977
 Red. masses --      1.9405                 1.9411                 1.9887
 Frc consts  --      0.6810                 0.6813                 0.7198
 IR Inten    --     22.0438                22.0076                28.7384

                     40                     41                     42
                      A                      A                      A
 Frequencies --    818.1061               818.1091               844.5353
 Red. masses --      5.1279                 5.1307                 1.2525
 Frc consts  --      2.0221                 2.0233                 0.5263
 IR Inten    --      4.5920                 4.5897                 0.0035

                     43                     44                     45
                      A                      A                      A
 Frequencies --    844.7065               844.7790               905.3774
 Red. masses --      1.2528                 1.2502                 1.7118
 Frc consts  --      0.5267                 0.5257                 0.8267
 IR Inten    --      0.0041                 0.0007                30.2913

                     46                     47                     48
                      A                      A                      A
 Frequencies --    909.0362               909.2355               922.4383
 Red. masses --      1.4852                 1.4840                 1.4949
 Frc consts  --      0.7231                 0.7229                 0.7495
 IR Inten    --      0.2332                 0.2633                 0.5065

                     49                     50                     51
                      A                      A                      A
 Frequencies --    922.5105               926.7971               928.0256
 Red. masses --      1.4943                 5.6252                 1.5762
 Frc consts  --      0.7492                 2.8468                 0.7998
 IR Inten    --      0.5130                 0.0000                19.9051

                     52                     53                     54
                      A                      A                      A
 Frequencies --    978.0610               979.9187               980.0176
 Red. masses --      2.3190                 1.3639                 1.3628
 Frc consts  --      1.3070                 0.7717                 0.7712
 IR Inten    --      0.0000                 0.0384                 0.0394

                     55                     56                     57
                      A                      A                      A
 Frequencies --    982.6521               998.2885               998.3338
 Red. masses --      2.3302                 1.2883                 1.2884
 Frc consts  --      1.3257                 0.7564                 0.7566
 IR Inten    --      0.0000                 0.0120                 0.0043

                     58                     59                     60
                      A                      A                      A
 Frequencies --    998.3505              1016.2868              1016.3180
 Red. masses --      1.2879                 5.3693                 5.4291
 Frc consts  --      0.7563                 3.2674                 3.3040
 IR Inten    --      0.0375                 0.2545                 0.2500

                     61                     62                     63
                      A                      A                      A
 Frequencies --   1017.9308              1023.8382              1024.0724
 Red. masses --      6.3530                 1.7542                 1.7509
 Frc consts  --      3.8785                 1.0834                 1.0818
 IR Inten    --      0.0000                 0.0411                 0.0418

                     64                     65                     66
                      A                      A                      A
 Frequencies --   1051.6987              1051.7749              1055.2914
 Red. masses --      1.9988                 1.9972                 1.9491
 Frc consts  --      1.3026                 1.3017                 1.2789
 IR Inten    --     12.7629                12.7828                 0.0033

                     67                     68                     69
                      A                      A                      A
 Frequencies --   1104.4771              1106.3001              1106.4112
 Red. masses --      1.5690                 1.5844                 1.5846
 Frc consts  --      1.1277                 1.1425                 1.1429
 IR Inten    --     16.7001                 0.7790                 0.7464

                     70                     71                     72
                      A                      A                      A
 Frequencies --   1150.0804              1189.6721              1189.7088
 Red. masses --      1.1920                 1.1198                 1.1199
 Frc consts  --      0.9289                 0.9338                 0.9339
 IR Inten    --      0.4711                 0.3523                 0.3485

                     73                     74                     75
                      A                      A                      A
 Frequencies --   1189.7573              1208.6103              1208.7339
 Red. masses --      1.1194                 1.1349                 1.1364
 Frc consts  --      0.9335                 0.9767                 0.9782
 IR Inten    --      0.3998                 0.1288                 0.0885

                     76                     77                     78
                      A                      A                      A
 Frequencies --   1208.9271              1212.4532              1215.6601
 Red. masses --      1.1317                 8.0416                 2.3467
 Frc consts  --      0.9745                 6.9650                 2.0433
 IR Inten    --      0.0019                 0.5571                50.8867

                     79                     80                     81
                      A                      A                      A
 Frequencies --   1215.8069              1281.3679              1281.4332
 Red. masses --      2.3408                 4.1111                 4.1089
 Frc consts  --      2.0387                 3.9770                 3.9753
 IR Inten    --     51.0687                 4.2613                 4.2185

                     82                     83                     84
                      A                      A                      A
 Frequencies --   1312.3589              1322.9929              1329.5069
 Red. masses --      4.9281                 4.4340                 5.4711
 Frc consts  --      5.0008                 4.5726                 5.6978
 IR Inten    --      0.0000                 0.0097                 9.0641

                     85                     86                     87
                      A                      A                      A
 Frequencies --   1329.5443              1355.0436              1355.7068
 Red. masses --      5.4780                 1.4864                 1.4810
 Frc consts  --      5.7053                 1.6080                 1.6037
 IR Inten    --      9.0355                 0.3799                18.9052

                     88                     89                     90
                      A                      A                      A
 Frequencies --   1355.8243              1428.6958              1428.7119
 Red. masses --      1.4799                 4.9673                 4.9719
 Frc consts  --      1.6028                 5.9738                 5.9795
 IR Inten    --     19.2914              1026.2899              1026.1226

                     91                     92                     93
                      A                      A                      A
 Frequencies --   1481.8337              1485.3449              1485.4139
 Red. masses --      2.2447                 2.3718                 2.3724
 Frc consts  --      2.9040                 3.0831                 3.0841
 IR Inten    --      4.4487                32.3273                32.2278

                     94                     95                     96
                      A                      A                      A
 Frequencies --   1524.3454              1524.4016              1527.6879
 Red. masses --      2.2488                 2.2483                 2.3262
 Frc consts  --      3.0786                 3.0782                 3.1986
 IR Inten    --     97.2398                97.3193                 0.0127

                     97                     98                     99
                      A                      A                      A
 Frequencies --   1622.9547              1623.3503              1623.3903
 Red. masses --      5.7844                 5.8288                 5.8290
 Frc consts  --      8.9767                 9.0502                 9.0508
 IR Inten    --      7.6599                 5.9085                 5.9131

                    100                    101                    102
                      A                      A                      A
 Frequencies --   1640.1033              1640.1210              1642.8117
 Red. masses --      5.5701                 5.5690                 5.5754
 Frc consts  --      8.8279                 8.8264                 8.8655
 IR Inten    --     57.5506                57.6196                 0.0014

                    103                    104                    105
                      A                      A                      A
 Frequencies --   2652.0427              2652.1395              2660.7835
 Red. masses --      1.0966                 1.0966                 1.1001
 Frc consts  --      4.5442                 4.5445                 4.5890
 IR Inten    --    129.0030               128.9285                 0.0078

                    106                    107                    108
                      A                      A                      A
 Frequencies --   3160.3823              3160.4407              3160.5005
 Red. masses --      1.0854                 1.0854                 1.0854
 Frc consts  --      6.3871                 6.3874                 6.3876
 IR Inten    --      3.6485                 3.9889                 0.3546

                    109                    110                    111
                      A                      A                      A
 Frequencies --   3168.1669              3168.2549              3168.2798
 Red. masses --      1.0884                 1.0884                 1.0884
 Frc consts  --      6.4363                 6.4367                 6.4369
 IR Inten    --      5.9769                 5.0732                 2.6290

                    112                    113                    114
                      A                      A                      A
 Frequencies --   3179.6188              3179.7139              3179.8180
 Red. masses --      1.0916                 1.0916                 1.0915
 Frc consts  --      6.5020                 6.5024                 6.5027
 IR Inten    --     33.3285                36.6115                 3.1073

                    115                    116                    117
                      A                      A                      A
 Frequencies --   3185.2190              3185.3517              3185.3904
 Red. masses --      1.0944                 1.0944                 1.0944
 Frc consts  --      6.5420                 6.5425                 6.5425
 IR Inten    --     23.1163                18.4620                 8.7755

                    118                    119                    120
                      A                      A                      A
 Frequencies --   3191.8586              3191.9340              3191.9788
 Red. masses --      1.0981                 1.0981                 1.0981
 Frc consts  --      6.5916                 6.5919                 6.5921
 IR Inten    --      7.7306                 8.8342                 1.2250

 - Thermochemistry -
 -------------------
 Temperature   298.150 Kelvin.  Pressure   1.00000 Atm.
 Atom     1 has atomic number  5 and mass  11.00931

 Molecular mass:   309.17799 amu.
 Principal axes and moments of inertia in atomic units:
                           1         2         3
     Eigenvalues --  9149.334589150.42758**********
           X           -0.00158   1.00000   0.00000
           Y            1.00000   0.00158   0.00009
           Z           -0.00009  -0.00000   1.00000
 This molecule is an asymmetric top.
 Rotational symmetry number  1.
 Warning -- assumption of classical behavior for rotation
           may cause significant error
 Rotational temperatures (Kelvin)      0.00947     0.00947     0.00506
 Rotational constants (GHZ):           0.19725     0.19723     0.10547
 Zero-point vibrational energy     874427.3 (Joules/Mol)
                                  208.99315 (Kcal/Mol)
 Warning -- explicit consideration of  29 degrees of freedom as
           vibrations may cause significant error
 Vibrational temperatures:     56.35    58.17    59.48    69.41    80.96
          (Kelvin)             81.17   158.21   158.48   201.12   323.66
                              323.67   336.88   384.15   384.74   470.31
                              487.85   487.92   584.47   607.09   607.43
                              607.51   692.94   692.98   714.65   775.96
                              776.10   841.84   861.85   861.90   911.01
                              912.93   912.98   968.89  1022.22  1022.36
                             1022.97  1110.45  1110.48  1127.71  1177.07
                             1177.08  1215.10  1215.34  1215.45  1302.64
                             1307.90  1308.19  1327.18  1327.29  1333.45
                             1335.22  1407.21  1409.88  1410.03  1413.82
                             1436.31  1436.38  1436.40  1462.21  1462.25
                             1464.58  1473.07  1473.41  1513.16  1513.27
                             1518.33  1589.10  1591.72  1591.88  1654.71
                             1711.67  1711.73  1711.80  1738.92  1739.10
                             1739.38  1744.45  1749.06  1749.28  1843.60
                             1843.70  1888.19  1903.49  1912.86  1912.92
                             1949.61  1950.56  1950.73  2055.57  2055.60
                             2132.03  2137.08  2137.18  2193.19  2193.27
                             2198.00  2335.07  2335.64  2335.70  2359.74
                             2359.77  2363.64  3815.70  3815.84  3828.27
                             4547.09  4547.17  4547.26  4558.29  4558.41
                             4558.45  4574.76  4574.90  4575.05  4582.82
                             4583.01  4583.07  4592.37  4592.48  4592.55

 Zero-point correction=                           0.333052 (Hartree/Particle)
 Thermal correction to Energy=                    0.352149
 Thermal correction to Enthalpy=                  0.353093
 Thermal correction to Gibbs Free Energy=         0.283797
 Sum of electronic and zero-point Energies=           -935.742145
 Sum of electronic and thermal Energies=              -935.723047
 Sum of electronic and thermal Enthalpies=            -935.722103
 Sum of electronic and thermal Free Energies=         -935.791399

                     E (Thermal)             CV                S
                      KCal/Mol        Cal/Mol-Kelvin    Cal/Mol-Kelvin
 Total                  220.977             77.427            145.846
 Electronic               0.000              0.000              0.000
 Translational            0.889              2.981             43.083
 Rotational               0.889              2.981             35.614
 Vibrational            219.199             71.466             67.149
 Vibration     1          0.594              1.981              5.301
 Vibration     2          0.594              1.981              5.238
 Vibration     3          0.594              1.981              5.194
 Vibration     4          0.595              1.978              4.888
 Vibration     5          0.596              1.975              4.584
 Vibration     6          0.596              1.975              4.579
 Vibration     7          0.606              1.941              3.270
 Vibration     8          0.606              1.941              3.266
 Vibration     9          0.615              1.914              2.807
 Vibration    10          0.650              1.803              1.919
 Vibration    11          0.650              1.803              1.919
 Vibration    12          0.654              1.789              1.847
 Vibration    13          0.672              1.734              1.616
 Vibration    14          0.673              1.733              1.613
 Vibration    15          0.711              1.622              1.275
 Vibration    16          0.719              1.597              1.217
 Vibration    17          0.719              1.597              1.216
 Vibration    18          0.771              1.457              0.940
 Vibration    19          0.784              1.423              0.885
 Vibration    20          0.785              1.422              0.885
 Vibration    21          0.785              1.422              0.884
 Vibration    22          0.838              1.291              0.706
 Vibration    23          0.838              1.291              0.706
 Vibration    24          0.852              1.257              0.666
 Vibration    25          0.894              1.163              0.567
 Vibration    26          0.894              1.163              0.567
 Vibration    27          0.942              1.064              0.476
 Vibration    28          0.957              1.034              0.451
 Vibration    29          0.957              1.034              0.451

 Optimization completed.
    -- Stationary point found.
 Normal termination of Gaussian 16 at Thu Oct 29 15:04:56 2020.
