 Gaussian 16, Revision C.01,
 Gaussian 16:  ES64L-G16RevC.01  3-Jul-2019

 --------------------------------------------------------------------
 #P B3LYP/6-311++G(d,p) EmpiricalDispersion=GD3 freq(noraman) SCF=YQC
 --------------------------------------------------------------------

 --------------------------------------------
 Restart from F_Nitrile_Triazine_freq_opt.log
 --------------------------------------------
 Symbolic Z-matrix:
 Charge =  0 Multiplicity = 1

                         Standard orientation:
 ---------------------------------------------------------------------
 Center     Atomic      Atomic             Coordinates (Angstroms)
 Number     Number       Type             X           Y           Z
 ---------------------------------------------------------------------
      1          9           0       -1.332058   -2.325673    0.446125
      2          6           0       -0.694248   -1.176147    0.198622
      3          6           0        0.694190   -1.176179    0.198648
      4          9           0        1.331937   -2.325733    0.446179
      5          6           0        1.417306   -0.000023    0.000017
      6          6           0        0.694248    1.176163   -0.198638
      7          9           0        1.332057    2.325689   -0.446140
      8          6           0       -0.694190    1.176194   -0.198663
      9          9           0       -1.331937    2.325749   -0.446194
     10          6           0       -1.417306    0.000038   -0.000032
     11          6           0        2.903922   -0.000054    0.000048
     12          7           0        3.519168   -0.888277   -0.787011
     13          6           0        4.850932   -0.841026   -0.740507
     14          7           0        3.519169    0.888217    0.787049
     15          6           0        4.850934    0.841009    0.740494
     16          7           0        5.575527   -0.000008   -0.000007
     17          1           0        5.390787    1.547706    1.363548
     18          1           0        5.390785   -1.547727   -1.363556
     19          6           0       -2.903922    0.000069   -0.000065
     20          7           0       -3.519169    0.888274    0.787014
     21          6           0       -4.850933    0.841000    0.740534
     22          7           0       -3.519168   -0.888220   -0.787047
     23          6           0       -4.850933   -0.841035   -0.740467
     24          7           0       -5.575527   -0.000025    0.000041
     25          1           0       -5.390785   -1.547736   -1.363518
     26          1           0       -5.390787    1.547696    1.363588
 ---------------------------------------------------------------------

 SCF Done:  E(RB3LYP) =  -1187.85638297     a.u. after    6 cycles
 SCF Done:  E(RB3LYP) =  -1187.85639470     A.U. after   10 cycles

 The electronic state is 1-A.
 Alpha  occ. eigenvalues --  -24.72741 -24.72741 -24.72740 -24.72740 -14.35757
 Alpha  occ. eigenvalues --  -14.35757 -14.35755 -14.35755 -14.35512 -14.35512
 Alpha  occ. eigenvalues --  -10.30958 -10.30957 -10.30902 -10.30901 -10.30368
 Alpha  occ. eigenvalues --  -10.30368 -10.28418 -10.28418 -10.28418 -10.28418
 Alpha  occ. eigenvalues --  -10.24571 -10.24570  -1.27831  -1.27762  -1.26357
 Alpha  occ. eigenvalues --   -1.26310  -1.06171  -1.06161  -0.94856  -0.94276
 Alpha  occ. eigenvalues --   -0.93741  -0.93739  -0.91758  -0.83311  -0.79868
 Alpha  occ. eigenvalues --   -0.75564  -0.72004  -0.71898  -0.70400  -0.67665
 Alpha  occ. eigenvalues --   -0.66949  -0.61499  -0.61153  -0.59998  -0.58664
 Alpha  occ. eigenvalues --   -0.58097  -0.56985  -0.56449  -0.55647  -0.53334
 Alpha  occ. eigenvalues --   -0.53223  -0.51614  -0.49290  -0.48677  -0.48586
 Alpha  occ. eigenvalues --   -0.48219  -0.47934  -0.47277  -0.46230  -0.46174
 Alpha  occ. eigenvalues --   -0.46089  -0.43821  -0.42270  -0.41585  -0.40394
 Alpha  occ. eigenvalues --   -0.39835  -0.39058  -0.36770  -0.35894  -0.35893
 Alpha  occ. eigenvalues --   -0.35427  -0.30280  -0.30246  -0.30165  -0.30032
 Alpha  occ. eigenvalues --   -0.29439  -0.27745
 Alpha virt. eigenvalues --   -0.10914  -0.08137  -0.08124  -0.08114  -0.03762
 Alpha virt. eigenvalues --   -0.03478  -0.02451  -0.00435   0.00340   0.01004
 Alpha virt. eigenvalues --    0.01237   0.01557   0.03352   0.03397   0.03943

 Mulliken charges:
               1
     1  F   -0.149159
     2  C   -0.726081
     3  C   -0.726138
     4  F   -0.149172
     5  C    1.403669
     6  C   -0.726083
     7  F   -0.149162
     8  C   -0.726146
     9  F   -0.149175
    10  C    1.403674
    11  C   -0.222339
    12  N    0.060864
    13  C    0.070869
    14  N    0.060857
    15  C    0.070887
    16  N   -0.122394
    17  H    0.214072
    18  H    0.214069
    19  C   -0.222337
    20  N    0.060866
    21  C    0.070864
    22  N    0.060856
    23  C    0.070892
    24  N   -0.122394
    25  H    0.214073
    26  H    0.214069
 Sum of Mulliken charges =   0.00000

 Dipole moment (field-independent basis, Debye):
    X=              0.0000    Y=             -0.0000    Z=              0.0000  Tot=              0.0000
 Quadrupole moment (field-independent basis, Debye-Ang):
   XX=           -114.8778   YY=           -128.3850   ZZ=           -119.1104
   XY=             -0.0002   XZ=              0.0001   YZ=              1.5921

  Exact polarizability:     283.816       0.001     154.934      -0.001      18.244     111.405
 Approx polarizability:     371.325       0.003     284.244      -0.003      38.022     188.527

                      1                      2                      3
                      A                      A                      A
 Frequencies --     32.5570                42.2442                50.7120
 Red. masses --      8.9141                 5.5504                 6.5714
 Frc consts  --      0.0056                 0.0058                 0.0100
 IR Inten    --      0.1799                 0.4841                 0.0000

                      4                      5                      6
                      A                      A                      A
 Frequencies --     59.6906                79.6472                97.9414
 Red. masses --      8.8825                11.9352                11.1767
 Frc consts  --      0.0186                 0.0446                 0.0632
 IR Inten    --      0.2227                 0.0000                 0.0000

                      7                      8                      9
                      A                      A                      A
 Frequencies --    130.1834               171.5127               208.6520
 Red. masses --     18.1388                12.6698                10.2987
 Frc consts  --      0.1811                 0.2196                 0.2642
 IR Inten    --      0.2100                 0.8527                 0.0000

                     10                     11                     12
                      A                      A                      A
 Frequencies --    210.2426               221.3914               250.6427
 Red. masses --     13.3941                13.3264                11.6666
 Frc consts  --      0.3488                 0.3848                 0.4318
 IR Inten    --      0.0000                 0.6665                 0.0000

                     13                     14                     15
                      A                      A                      A
 Frequencies --    273.5487               309.3757               313.1030
 Red. masses --     14.1783                17.1078                17.6343
 Frc consts  --      0.6251                 0.9648                 1.0185
 IR Inten    --      1.5053                 0.0000                 0.8091

                     16                     17                     18
                      A                      A                      A
 Frequencies --    344.8631               355.0703               355.4004
 Red. masses --     10.1499                 3.4531                 3.4781
 Frc consts  --      0.7112                 0.2565                 0.2588
 IR Inten    --      3.6440                 0.0375                 0.0000

                     19                     20                     21
                      A                      A                      A
 Frequencies --    406.6784               435.8713               439.4359
 Red. masses --     12.7057                 9.8191                14.9363
 Frc consts  --      1.2381                 1.0991                 1.6994
 IR Inten    --      0.0000                 0.0000                 4.2137

                     22                     23                     24
                      A                      A                      A
 Frequencies --    450.5673               507.4754               524.0972
 Red. masses --     11.8455                16.3041                 3.6800
 Frc consts  --      1.4168                 2.4739                 0.5956
 IR Inten    --      0.0000                 0.0000                 8.6228

                     25                     26                     27
                      A                      A                      A
 Frequencies --    548.2451               679.3727               686.6277
 Red. masses --      3.9701                 7.3858                12.2271
 Frc consts  --      0.7031                 2.0085                 3.3964
 IR Inten    --      0.0000                 6.2702                 3.1949

                     28                     29                     30
                      A                      A                      A
 Frequencies --    702.8470               705.3795               715.8889
 Red. masses --     11.8292                 9.4618                 8.2111
 Frc consts  --      3.4429                 2.7738                 2.4794
 IR Inten    --    131.3694                 0.0000                26.8934

                     31                     32                     33
                      A                      A                      A
 Frequencies --    716.2293               742.3561               778.4028
 Red. masses --     10.3541                 6.1608                10.4641
 Frc consts  --      3.1294                 2.0004                 3.7356
 IR Inten    --      0.0000                 0.0000                 0.0000

                     34                     35                     36
                      A                      A                      A
 Frequencies --    845.0008               859.9060               874.6154
 Red. masses --      7.0206                 9.2790                10.1200
 Frc consts  --      2.9535                 4.0425                 4.5610
 IR Inten    --     57.7653                 2.5914                 0.0000

                     37                     38                     39
                      A                      A                      A
 Frequencies --    971.5015               976.1147               976.7077
 Red. masses --      1.8449                 8.8552                 1.5897
 Frc consts  --      1.0259                 4.9711                 0.8935
 IR Inten    --     31.1365                 0.0000                 0.0000

                     40                     41                     42
                      A                      A                      A
 Frequencies --   1003.3597              1012.3735              1016.4041
 Red. masses --      6.4844                13.8946                12.9566
 Frc consts  --      3.8462                 8.3903                 7.8863
 IR Inten    --    141.1264                 1.8349                 0.0000

                     43                     44                     45
                      A                      A                      A
 Frequencies --   1037.8884              1037.9370              1144.6234
 Red. masses --      1.4848                 1.4849                13.6198
 Frc consts  --      0.9424                 0.9425                10.5134
 IR Inten    --      0.5785                 0.0000                 0.0000

                     46                     47                     48
                      A                      A                      A
 Frequencies --   1167.3657              1167.4007              1177.2707
 Red. masses --     12.6129                12.6223                 3.5571
 Frc consts  --     10.1270                10.1351                 2.9047
 IR Inten    --      0.0002                 1.7803                 2.7518

                     49                     50                     51
                      A                      A                      A
 Frequencies --   1179.7247              1215.9311              1267.3490
 Red. masses --      3.0408                 4.7629                 3.5587
 Frc consts  --      2.4934                 4.1490                 3.3677
 IR Inten    --      0.0000                 6.1739                14.9326

                     52                     53                     54
                      A                      A                      A
 Frequencies --   1270.9914              1312.2837              1318.8924
 Red. masses --      3.3378                 9.9409                 3.5441
 Frc consts  --      3.1769                10.0863                 3.6322
 IR Inten    --      0.0000                20.4877                 0.0000

                     55                     56                     57
                      A                      A                      A
 Frequencies --   1360.1603              1416.6692              1416.7237
 Red. masses --      4.2122                 1.4814                 1.4780
 Frc consts  --      4.5914                 1.7517                 1.7478
 IR Inten    --     40.4663                 0.0004                66.3115

                     58                     59                     60
                      A                      A                      A
 Frequencies --   1422.2613              1445.1846              1460.3735
 Red. masses --      5.3116                 2.5166                 3.0162
 Frc consts  --      6.3305                 3.0968                 3.7899
 IR Inten    --      0.0000               457.7220                 0.0000

                     61                     62                     63
                      A                      A                      A
 Frequencies --   1494.3102              1510.7001              1564.3842
 Red. masses --     11.7333                10.9366                 8.5284
 Frc consts  --     15.4366                14.7059                12.2972
 IR Inten    --    318.4193               233.0597                 0.0000

                     64                     65                     66
                      A                      A                      A
 Frequencies --   1576.3772              1587.3787              1593.3215
 Red. masses --      8.6767                 5.2554                 5.5934
 Frc consts  --     12.7036                 7.8022                 8.3663
 IR Inten    --    410.8423               750.1728                 0.0000

                     67                     68                     69
                      A                      A                      A
 Frequencies --   1622.0165              1681.8938              3168.0430
 Red. masses --     11.6651                12.0266                 1.0908
 Frc consts  --     18.0820                20.0442                 6.4505
 IR Inten    --      0.0000                 0.0000                 0.4792

                     70                     71                     72
                      A                      A                      A
 Frequencies --   3168.0523              3171.2147              3171.3325
 Red. masses --      1.0908                 1.0952                 1.0953
 Frc consts  --      6.4505                 6.4895                 6.4903
 IR Inten    --     30.5910                26.6623                 0.0025

 - Thermochemistry -
 -------------------
 Temperature   298.150 Kelvin.  Pressure   1.00000 Atm.
 Atom     1 has atomic number  9 and mass  18.99840

 Molecular mass:   308.04336 amu.
 Principal axes and moments of inertia in atomic units:
                           1         2         3
     Eigenvalues --  2323.97221********************
           X            1.00000  -0.00000  -0.00000
           Y            0.00000   0.99966   0.02605
           Z            0.00000  -0.02605   0.99966
 This molecule is an asymmetric top.
 Rotational symmetry number  1.
 Warning -- assumption of classical behavior for rotation
           may cause significant error
 Rotational temperatures (Kelvin)      0.03727     0.00734     0.00641
 Rotational constants (GHZ):           0.77658     0.15293     0.13352
 Zero-point vibrational energy     413969.5 (Joules/Mol)
                                   98.94108 (Kcal/Mol)
 Warning -- explicit consideration of  25 degrees of freedom as
           vibrations may cause significant error
 Vibrational temperatures:     46.84    60.78    72.96    85.88   114.59
          (Kelvin)            140.92   187.30   246.77   300.20   302.49
                              318.53   360.62   393.58   445.12   450.49
                              496.18   510.87   511.34   585.12   627.12
                              632.25   648.27   730.14   754.06   788.80
                              977.47   987.90  1011.24  1014.88  1030.00
                             1030.49  1068.08  1119.95  1215.77  1237.21
                             1258.38  1397.77  1404.41  1405.26  1443.61
                             1456.58  1462.38  1493.29  1493.36  1646.86
                             1679.58  1679.63  1693.83  1697.36  1749.45
                             1823.43  1828.67  1888.08  1897.59  1956.97
                             2038.27  2038.35  2046.32  2079.30  2101.15
                             2149.98  2173.56  2250.80  2268.06  2283.88
                             2292.43  2333.72  2419.87  4558.11  4558.12
                             4562.67  4562.84

 Zero-point correction=                           0.157673 (Hartree/Particle)
 Thermal correction to Energy=                    0.174421
 Thermal correction to Enthalpy=                  0.175365
 Thermal correction to Gibbs Free Energy=         0.111222
 Sum of electronic and zero-point Energies=          -1187.698722
 Sum of electronic and thermal Energies=             -1187.681974
 Sum of electronic and thermal Enthalpies=           -1187.681030
 Sum of electronic and thermal Free Energies=        -1187.745173

                     E (Thermal)             CV                S
                      KCal/Mol        Cal/Mol-Kelvin    Cal/Mol-Kelvin
 Total                  109.451             61.781            135.001
 Electronic               0.000              0.000              0.000
 Translational            0.889              2.981             43.072
 Rotational               0.889              2.981             34.271
 Vibrational            107.673             55.820             57.658
 Vibration     1          0.594              1.983              5.667
 Vibration     2          0.595              1.980              5.151
 Vibration     3          0.595              1.977              4.789
 Vibration     4          0.597              1.974              4.467
 Vibration     5          0.600              1.963              3.900
 Vibration     6          0.603              1.951              3.495
 Vibration     7          0.612              1.923              2.943
 Vibration     8          0.626              1.878              2.419
 Vibration     9          0.642              1.827              2.055
 Vibration    10          0.642              1.825              2.042
 Vibration    11          0.648              1.809              1.948
 Vibration    12          0.663              1.762              1.726
 Vibration    13          0.676              1.722              1.574
 Vibration    14          0.699              1.656              1.366
 Vibration    15          0.701              1.649              1.346
 Vibration    16          0.723              1.586              1.190
 Vibration    17          0.731              1.565              1.144
 Vibration    18          0.731              1.564              1.142
 Vibration    19          0.771              1.456              0.938
 Vibration    20          0.796              1.392              0.840
 Vibration    21          0.799              1.384              0.828
 Vibration    22          0.809              1.360              0.794
 Vibration    23          0.863              1.233              0.640
 Vibration    24          0.879              1.197              0.601
 Vibration    25          0.903              1.144              0.548

 Optimization completed.
    -- Stationary point found.
 Normal termination of Gaussian 16 at Tue Sep 22 11:45:25 2020.
