 Gaussian 16, Revision C.01,
 Gaussian 16:  ES64L-G16RevC.01  3-Jul-2019

 --------------------------------------------------------------------
 #P B3LYP/6-311++G(d,p) EmpiricalDispersion=GD3 freq(noraman) SCF=YQC
 --------------------------------------------------------------------

 ----------------------------------------
 Restart from 3_Phenyl_Aldehyde_Imine.log
 ----------------------------------------
 Symbolic Z-matrix:
 Charge =  0 Multiplicity = 1

                         Standard orientation:
 ---------------------------------------------------------------------
 Center     Atomic      Atomic             Coordinates (Angstroms)
 Number     Number       Type             X           Y           Z
 ---------------------------------------------------------------------
      1          6           0       -1.403374    0.049954   -0.057103
      2          6           0       -0.733308   -1.186093   -0.057330
      3          6           0        0.658268   -1.240283   -0.057269
      4          6           0        1.393678   -0.041958   -0.057255
      5          6           0        0.744836    1.190289   -0.057015
      6          6           0       -0.660642    1.228000   -0.056990
      7          1           0        2.476560   -0.099119   -0.056396
      8          1           0       -1.152587    2.194377   -0.055974
      9          1           0       -1.324245   -2.095317   -0.056505
     10          6           0       -7.808374   -0.675648    0.063562
     11          6           0       -7.165023   -1.595865   -0.766056
     12          6           0       -7.049592    0.170596    0.871070
     13          6           0       -5.658520    0.114840    0.839155
     14          6           0       -5.007606   -0.797659   -0.006319
     15          6           0       -5.776720   -1.670511   -0.789142
     16          6           0       -2.871397    0.122406   -0.054707
     17          7           0       -3.608171   -0.918633   -0.068187
     18          1           0       -7.748330   -2.265154   -1.388536
     19          1           0       -7.541761    0.871511    1.536245
     20          1           0       -5.073774    0.752678    1.492202
     21          1           0       -5.265632   -2.390488   -1.417352
     22          1           0       -3.297045    1.134929   -0.054679
     23          1           0       -8.890891   -0.629903    0.091662
     24          6           0        3.319343    7.099765    0.063357
     25          6           0        2.199259    7.003424   -0.764349
     26          6           0        3.674121    6.018918    0.869493
     27          6           0        2.930115    4.842201    0.838076
     28          6           0        1.812952    4.735430   -0.005560
     29          6           0        1.440338    5.838519   -0.786951
     30          6           0        1.541580    2.425415   -0.054574
     31          7           0        1.008387    3.584006   -0.067062
     32          1           0        1.910281    7.843695   -1.385727
     33          1           0        4.528384    6.094139    1.533230
     34          1           0        3.191200    4.016389    1.490075
     35          1           0        0.560192    5.756400   -1.413711
     36          1           0        2.631274    2.287780   -0.055328
     37          1           0        3.900356    8.014304    0.091085
     38          6           0        4.489473   -6.424139    0.064383
     39          6           0        4.964957   -5.406813   -0.765037
     40          6           0        3.376864   -6.190256    0.871447
     41          6           0        2.729505   -4.957738    0.839302
     42          6           0        3.194536   -3.937722   -0.005975
     43          6           0        4.335318   -4.167262   -0.788373
     44          6           0        1.329564   -2.547839   -0.054863
     45          7           0        2.599526   -2.665333   -0.068014
     46          1           0        5.836493   -5.577231   -1.387176
     47          1           0        3.015757   -6.966984    1.536477
     48          1           0        1.884469   -4.770336    1.492014
     49          1           0        4.703459   -3.364611   -1.416429
     50          1           0        0.665543   -3.422741   -0.054880
     51          1           0        4.991208   -7.384444    0.092680
 ---------------------------------------------------------------------

 SCF Done:  E(RB3LYP) =  -1206.09877702     a.u. after    7 cycles
 SCF Done:  E(RB3LYP) =  -1206.09877931     A.U. after    9 cycles

 The electronic state is 1-A.
 Alpha  occ. eigenvalues --  -14.32518 -14.32518 -14.32518 -10.23297 -10.23297
 Alpha  occ. eigenvalues --  -10.23297 -10.21599 -10.21599 -10.21599 -10.20476
 Alpha  occ. eigenvalues --  -10.20474 -10.20474 -10.19937 -10.19937 -10.19933
 Alpha  occ. eigenvalues --  -10.18332 -10.18331 -10.18331 -10.18256 -10.18256
 Alpha  occ. eigenvalues --  -10.18255 -10.18202 -10.18202 -10.18202 -10.17980
 Alpha  occ. eigenvalues --  -10.17979 -10.17979 -10.17891 -10.17891 -10.17891
 Alpha  occ. eigenvalues --   -0.95414  -0.95197  -0.95197  -0.88760  -0.85913
 Alpha  occ. eigenvalues --   -0.85912  -0.85417  -0.79734  -0.79734  -0.75800
 Alpha  occ. eigenvalues --   -0.75686  -0.75686  -0.75349  -0.74500  -0.74500
 Alpha  occ. eigenvalues --   -0.67305  -0.67305  -0.66516  -0.62295  -0.62295
 Alpha  occ. eigenvalues --   -0.61732  -0.60994  -0.60994  -0.59564  -0.56133
 Alpha  occ. eigenvalues --   -0.56133  -0.54816  -0.52931  -0.52931  -0.52648
 Alpha  occ. eigenvalues --   -0.50284  -0.48864  -0.48864  -0.48582  -0.47203
 Alpha  occ. eigenvalues --   -0.47202  -0.46329  -0.45179  -0.45179  -0.44890
 Alpha  occ. eigenvalues --   -0.44164  -0.44123  -0.44122  -0.43121  -0.43120
 Alpha  occ. eigenvalues --   -0.43107  -0.41845  -0.39731  -0.39730  -0.38543
 Alpha  occ. eigenvalues --   -0.37819  -0.37819  -0.37132  -0.37089  -0.37089
 Alpha  occ. eigenvalues --   -0.36283  -0.36283  -0.35886  -0.35223  -0.35222
 Alpha  occ. eigenvalues --   -0.33173  -0.29887  -0.29887  -0.29081  -0.27024
 Alpha  occ. eigenvalues --   -0.27023  -0.26418  -0.26381  -0.26381  -0.23984
 Alpha  occ. eigenvalues --   -0.23394  -0.23393
 Alpha virt. eigenvalues --   -0.08378  -0.08377  -0.05920  -0.02127  -0.02117
 Alpha virt. eigenvalues --   -0.02117  -0.01002  -0.01002  -0.00887  -0.00484
 Alpha virt. eigenvalues --   -0.00484   0.00352   0.00503   0.00504   0.00663

 Mulliken charges:
               1
     1  C    0.434205
     2  C   -0.697626
     3  C    0.434116
     4  C   -0.697776
     5  C    0.434568
     6  C   -0.697864
     7  H    0.209706
     8  H    0.209790
     9  H    0.209749
    10  C   -0.357083
    11  C   -0.172318
    12  C   -0.095198
    13  C   -0.016137
    14  C   -0.395634
    15  C    0.156749
    16  C   -0.227371
    17  N    0.250452
    18  H    0.177126
    19  H    0.180155
    20  H    0.148717
    21  H    0.164311
    22  H    0.090976
    23  H    0.148839
    24  C   -0.357275
    25  C   -0.172570
    26  C   -0.095472
    27  C   -0.015884
    28  C   -0.394089
    29  C    0.156174
    30  C   -0.227249
    31  N    0.250220
    32  H    0.177131
    33  H    0.180163
    34  H    0.148657
    35  H    0.164323
    36  H    0.090883
    37  H    0.148836
    38  C   -0.357044
    39  C   -0.172324
    40  C   -0.095291
    41  C   -0.016024
    42  C   -0.395543
    43  C    0.156616
    44  C   -0.227247
    45  N    0.250486
    46  H    0.177125
    47  H    0.180155
    48  H    0.148686
    49  H    0.164307
    50  H    0.090957
    51  H    0.148842
 Sum of Mulliken charges =   0.00000

 Dipole moment (field-independent basis, Debye):
    X=              0.0008    Y=              0.0007    Z=              0.1825  Tot=              0.1825
 Quadrupole moment (field-independent basis, Debye-Ang):
   XX=           -161.5199   YY=           -161.5284   ZZ=           -176.6042
   XY=             -0.0019   XZ=             -0.0012   YZ=             -0.0063

  Exact polarizability:     516.527      -0.009     516.482       0.005      -0.002     217.732
 Approx polarizability:     706.515      -0.030     706.444      -0.005       0.008     368.164

                      1                      2                      3
                      A                      A                      A
 Frequencies --     21.7946                25.0017                26.0608
 Red. masses --      5.7272                 3.9359                 4.0396
 Frc consts  --      0.0016                 0.0014                 0.0016
 IR Inten    --      0.0012                 0.3235                 0.3604

                      4                      5                      6
                      A                      A                      A
 Frequencies --     28.6170                28.7250                29.1754
 Red. masses --      5.3470                 5.2587                 3.8547
 Frc consts  --      0.0026                 0.0026                 0.0019
 IR Inten    --      0.2608                 0.1572                 0.6217

                      7                      8                      9
                      A                      A                      A
 Frequencies --     63.2951                63.4039                77.9317
 Red. masses --      5.4061                 5.4061                 5.3723
 Frc consts  --      0.0128                 0.0128                 0.0192
 IR Inten    --      0.0645                 0.0647                 1.5233

                     10                     11                     12
                      A                      A                      A
 Frequencies --    123.4892               126.3996               126.4619
 Red. masses --      5.7497                 4.6898                 4.6888
 Frc consts  --      0.0517                 0.0441                 0.0442
 IR Inten    --      6.0106                 0.7197                 0.7272

                     13                     14                     15
                      A                      A                      A
 Frequencies --    154.3937               157.7798               157.9430
 Red. masses --      7.0717                 4.6651                 4.6682
 Frc consts  --      0.0993                 0.0684                 0.0686
 IR Inten    --      0.3647                 1.8766                 1.8690

                     16                     17                     18
                      A                      A                      A
 Frequencies --    243.8366               255.1098               255.2061
 Red. masses --      3.2886                 3.9022                 3.9070
 Frc consts  --      0.1152                 0.1496                 0.1499
 IR Inten    --     18.0972                 4.9759                 4.9793

                     19                     20                     21
                      A                      A                      A
 Frequencies --    285.5069               285.5399               292.9884
 Red. masses --      3.9550                 3.9554                 3.6199
 Frc consts  --      0.1899                 0.1900                 0.1831
 IR Inten    --      1.4571                 1.4682                 9.2797

                     22                     23                     24
                      A                      A                      A
 Frequencies --    328.6729               328.7350               394.3171
 Red. masses --      5.1960                 5.1970                 5.0127
 Frc consts  --      0.3307                 0.3309                 0.4592
 IR Inten    --      0.5962                 0.5987                 1.9338

                     25                     26                     27
                      A                      A                      A
 Frequencies --    420.6840               420.7226               422.9620
 Red. masses --      2.9562                 2.9562                 3.0614
 Frc consts  --      0.3082                 0.3083                 0.3227
 IR Inten    --      3.4126                 3.4160                 0.0008

                     28                     29                     30
                      A                      A                      A
 Frequencies --    462.7850               462.8512               513.2784
 Red. masses --      4.8082                 4.8084                 3.8007
 Frc consts  --      0.6067                 0.6069                 0.5900
 IR Inten    --      3.5942                 3.5949                 1.4783

                     31                     32                     33
                      A                      A                      A
 Frequencies --    526.8777               526.9154               545.2700
 Red. masses --      3.7288                 3.7291                 5.9292
 Frc consts  --      0.6099                 0.6100                 1.0386
 IR Inten    --     13.0788                13.0789                20.6104

                     34                     35                     36
                      A                      A                      A
 Frequencies --    545.2940               559.7450               584.0828
 Red. masses --      5.9278                 6.1492                 4.3145
 Frc consts  --      1.0385                 1.1351                 0.8672
 IR Inten    --     20.6467                 3.3881                 8.4669

                     37                     38                     39
                      A                      A                      A
 Frequencies --    601.4276               601.4664               631.5841
 Red. masses --      4.1825                 4.1842                 6.4895
 Frc consts  --      0.8914                 0.8918                 1.5252
 IR Inten    --      2.5580                 2.5662                 0.0181

                     40                     41                     42
                      A                      A                      A
 Frequencies --    631.6084               631.9435               678.7059
 Red. masses --      6.4895                 6.3920                 6.1371
 Frc consts  --      1.5253                 1.5040                 1.6656
 IR Inten    --      0.0173                 0.3312                11.8144

                     43                     44                     45
                      A                      A                      A
 Frequencies --    678.7166               699.6726               705.5953
 Red. masses --      6.1380                 2.2503                 1.7668
 Frc consts  --      1.6659                 0.6491                 0.5183
 IR Inten    --     11.8123                 0.7236                25.0735

                     46                     47                     48
                      A                      A                      A
 Frequencies --    705.6386               706.5567               762.4829
 Red. masses --      1.7666                 1.7984                 2.6561
 Frc consts  --      0.5183                 0.5290                 0.9098
 IR Inten    --     25.1803                83.4380                34.2083

                     49                     50                     51
                      A                      A                      A
 Frequencies --    777.3309               777.3477               788.1335
 Red. masses --      1.9535                 1.9533                 2.8230
 Frc consts  --      0.6954                 0.6954                 1.0331
 IR Inten    --     34.2584                34.2022                23.8432

                     52                     53                     54
                      A                      A                      A
 Frequencies --    843.5936               843.6398               843.9523
 Red. masses --      1.2480                 1.2479                 1.2547
 Frc consts  --      0.5233                 0.5233                 0.5265
 IR Inten    --      1.6077                 1.6004                 0.6828

                     55                     56                     57
                      A                      A                      A
 Frequencies --    859.6966               859.7083               887.6399
 Red. masses --      5.6626                 5.6626                 3.7117
 Frc consts  --      2.4658                 2.4659                 1.7231
 IR Inten    --     32.8277                32.7890                 0.0035

                     58                     59                     60
                      A                      A                      A
 Frequencies --    913.7530               920.6416               920.6611
 Red. masses --      1.5347                 1.4884                 1.4885
 Frc consts  --      0.7550                 0.7433                 0.7433
 IR Inten    --      1.8998                 3.9900                 4.0057

                     61                     62                     63
                      A                      A                      A
 Frequencies --    929.1521               948.0089               948.1648
 Red. masses --      1.6740                 1.3754                 1.3750
 Frc consts  --      0.8515                 0.7283                 0.7283
 IR Inten    --     18.7489                 0.1863                 0.1894

                     64                     65                     66
                      A                      A                      A
 Frequencies --    980.2902               980.3034               980.3347
 Red. masses --      1.3640                 1.3640                 1.3641
 Frc consts  --      0.7723                 0.7723                 0.7724
 IR Inten    --      0.2373                 0.2322                 0.2557

                     67                     68                     69
                      A                      A                      A
 Frequencies --    997.3799               997.3858               997.4600
 Red. masses --      1.2983                 1.2982                 1.2973
 Frc consts  --      0.7609                 0.7609                 0.7605
 IR Inten    --      0.0365                 0.0377                 0.0870

                     70                     71                     72
                      A                      A                      A
 Frequencies --   1004.3040              1004.4662              1006.4869
 Red. masses --      1.9742                 1.9882                 2.3111
 Frc consts  --      1.1732                 1.1819                 1.3794
 IR Inten    --      3.7926                 3.8258                14.4837

                     73                     74                     75
                      A                      A                      A
 Frequencies --   1009.4661              1011.5260              1011.5627
 Red. masses --      5.7595                 3.5557                 3.5169
 Frc consts  --      3.4579                 2.1435                 2.1203
 IR Inten    --      1.0503                 2.1093                 2.0699

                     76                     77                     78
                      A                      A                      A
 Frequencies --   1015.9071              1022.1653              1022.2078
 Red. masses --      3.0024                 3.5788                 3.5662
 Frc consts  --      1.8257                 2.2031                 2.1955
 IR Inten    --      7.1618                 9.8509                 9.8627

                     79                     80                     81
                      A                      A                      A
 Frequencies --   1046.2966              1046.6350              1046.6671
 Red. masses --      2.1118                 2.0990                 2.0993
 Frc consts  --      1.3621                 1.3547                 1.3550
 IR Inten    --      0.0353                 8.7637                 8.7433

                     82                     83                     84
                      A                      A                      A
 Frequencies --   1106.3631              1106.4349              1106.4490
 Red. masses --      1.5362                 1.5367                 1.5365
 Frc consts  --      1.1079                 1.1084                 1.1083
 IR Inten    --      6.8730                 6.8543                 6.6784

                     85                     86                     87
                      A                      A                      A
 Frequencies --   1174.0124              1174.0664              1188.3192
 Red. masses --      1.6082                 1.6086                 1.1355
 Frc consts  --      1.3060                 1.3064                 0.9448
 IR Inten    --    104.8667               104.8901                 0.0425

                     88                     89                     90
                      A                      A                      A
 Frequencies --   1188.8530              1188.8732              1199.3857
 Red. masses --      1.1251                 1.1251                 1.2321
 Frc consts  --      0.9369                 0.9370                 1.0443
 IR Inten    --      0.8712                 0.8764                 0.2666

                     91                     92                     93
                      A                      A                      A
 Frequencies --   1200.9215              1201.0139              1229.1318
 Red. masses --      1.1621                 1.1619                 3.2769
 Frc consts  --      0.9875                 0.9875                 2.9168
 IR Inten    --      0.3816                 0.3776                 0.0043

                     94                     95                     96
                      A                      A                      A
 Frequencies --   1245.5596              1245.5986              1288.0827
 Red. masses --      3.1435                 3.1446                 1.4899
 Frc consts  --      2.8734                 2.8745                 1.4565
 IR Inten    --     20.6323                20.5870                 0.0117

                     97                     98                     99
                      A                      A                      A
 Frequencies --   1317.7759              1317.7859              1318.4680
 Red. masses --      3.4106                 3.4160                 3.3830
 Frc consts  --      3.4895                 3.4951                 3.4649
 IR Inten    --      0.1491                 0.1480                 0.0084

                    100                    101                    102
                      A                      A                      A
 Frequencies --   1336.0826              1351.2542              1351.3290
 Red. masses --      2.8838                 1.6288                 1.6270
 Frc consts  --      3.0330                 1.7522                 1.7505
 IR Inten    --      0.0064                 2.4838                 2.5022

                    103                    104                    105
                      A                      A                      A
 Frequencies --   1352.0117              1360.7294              1393.0559
 Red. masses --      1.6330                 3.4302                 1.5157
 Frc consts  --      1.7587                 3.7421                 1.7330
 IR Inten    --      0.0389                 0.0126                13.5610

                    106                    107                    108
                      A                      A                      A
 Frequencies --   1393.1528              1429.4217              1475.4262
 Red. masses --      1.5160                 1.8738                 2.7962
 Frc consts  --      1.7335                 2.2557                 3.5864
 IR Inten    --     13.5418                 0.1074                17.3781

                    109                    110                    111
                      A                      A                      A
 Frequencies --   1475.4790              1478.9078              1479.4045
 Red. masses --      2.7909                 2.2409                 2.4037
 Frc consts  --      3.5799                 2.8877                 3.0996
 IR Inten    --     17.3626                 3.5308                 0.7097

                    112                    113                    114
                      A                      A                      A
 Frequencies --   1479.4157              1517.3619              1517.3948
 Red. masses --      2.4060                 2.2348                 2.2341
 Frc consts  --      3.1025                 3.0315                 3.0308
 IR Inten    --      0.6967                60.6891                60.6074

                    115                    116                    117
                      A                      A                      A
 Frequencies --   1518.6120              1611.8875              1611.9066
 Red. masses --      2.2483                 5.3948                 5.3941
 Frc consts  --      3.0549                 8.2584                 8.2575
 IR Inten    --      0.3658                 5.1401                 5.1373

                    118                    119                    120
                      A                      A                      A
 Frequencies --   1611.9814              1623.0380              1623.0566
 Red. masses --      5.4000                 5.4888                 5.4899
 Frc consts  --      8.2673                 8.5190                 8.5208
 IR Inten    --      4.0739                73.5574                73.6978

                    121                    122                    123
                      A                      A                      A
 Frequencies --   1630.4672              1636.1048              1636.1162
 Red. masses --      5.6433                 5.6726                 5.6735
 Frc consts  --      8.8391                 8.9466                 8.9480
 IR Inten    --      0.1369                35.7433                35.7409

                    124                    125                    126
                      A                      A                      A
 Frequencies --   1689.1527              1691.1414              1691.1576
 Red. masses --      7.9678                 7.6828                 7.6789
 Frc consts  --     13.3944                12.9457                12.9396
 IR Inten    --      0.0056               179.6424               179.5504

                    127                    128                    129
                      A                      A                      A
 Frequencies --   3008.1469              3008.2648              3008.4603
 Red. masses --      1.0861                 1.0861                 1.0861
 Frc consts  --      5.7905                 5.7909                 5.7916
 IR Inten    --     38.8253                35.2777                33.6774

                    130                    131                    132
                      A                      A                      A
 Frequencies --   3159.5014              3159.5322              3159.5618
 Red. masses --      1.0854                 1.0854                 1.0854
 Frc consts  --      6.3835                 6.3837                 6.3838
 IR Inten    --      5.3670                 5.0590                 2.0375

                    133                    134                    135
                      A                      A                      A
 Frequencies --   3167.2123              3167.2776              3167.2939
 Red. masses --      1.0881                 1.0881                 1.0881
 Frc consts  --      6.4306                 6.4310                 6.4310
 IR Inten    --      3.6465                 3.7540                 3.6198

                    136                    137                    138
                      A                      A                      A
 Frequencies --   3177.5990              3177.6822              3177.7346
 Red. masses --      1.0917                 1.0917                 1.0917
 Frc consts  --      6.4946                 6.4949                 6.4950
 IR Inten    --     13.8881                13.7576                12.7765

                    139                    140                    141
                      A                      A                      A
 Frequencies --   3179.2360              3180.2396              3180.2695
 Red. masses --      1.0918                 1.0901                 1.0901
 Frc consts  --      6.5018                 6.4956                 6.4957
 IR Inten    --      0.0022                 2.1165                 2.1382

                    142                    143                    144
                      A                      A                      A
 Frequencies --   3185.0464              3185.1078              3185.1196
 Red. masses --      1.0942                 1.0943                 1.0943
 Frc consts  --      6.5403                 6.5406                 6.5406
 IR Inten    --     18.3406                18.2812                18.3626

                    145                    146                    147
                      A                      A                      A
 Frequencies --   3191.9166              3191.9550              3192.0088
 Red. masses --      1.0977                 1.0977                 1.0977
 Frc consts  --      6.5891                 6.5892                 6.5895
 IR Inten    --     21.0522                20.2820                 5.1840

 - Thermochemistry -
 -------------------
 Temperature   298.150 Kelvin.  Pressure   1.00000 Atm.
 Atom     1 has atomic number  6 and mass  12.00000

 Molecular mass:   387.17355 amu.
 Principal axes and moments of inertia in atomic units:
                           1         2         3
     Eigenvalues --  ******************************
           X            0.99994  -0.01071  -0.00004
           Y            0.01071   0.99994   0.00001
           Z            0.00004  -0.00001   1.00000
 This molecule is an asymmetric top.
 Rotational symmetry number  1.
 Warning -- assumption of classical behavior for rotation
           may cause significant error
 Rotational temperatures (Kelvin)      0.00424     0.00424     0.00217
 Rotational constants (GHZ):           0.08840     0.08839     0.04516
 Zero-point vibrational energy    1065399.2 (Joules/Mol)
                                  254.63651 (Kcal/Mol)
 Warning -- explicit consideration of  38 degrees of freedom as
           vibrations may cause significant error
 Vibrational temperatures:     31.36    35.97    37.50    41.17    41.33
          (Kelvin)             41.98    91.07    91.22   112.13   177.67
                              181.86   181.95   222.14   227.01   227.24
                              350.83   367.05   367.18   410.78   410.83
                              421.54   472.89   472.98   567.33   605.27
                              605.33   608.55   665.84   665.94   738.49
                              758.06   758.11   784.52   784.56   805.35
                              840.36   865.32   865.38   908.71   908.74
                              909.23   976.51   976.52  1006.67  1015.19
                             1015.26  1016.58  1097.04  1118.41  1118.43
                             1133.95  1213.74  1213.81  1214.26  1236.91
                             1236.93  1277.12  1314.69  1324.60  1324.63
                             1336.84  1363.97  1364.20  1410.42  1410.44
                             1410.48  1435.01  1435.02  1435.12  1444.97
                             1445.20  1448.11  1452.40  1455.36  1455.41
                             1461.66  1470.67  1470.73  1505.39  1505.87
                             1505.92  1591.81  1591.91  1591.93  1689.14
                             1689.22  1709.73  1710.49  1710.52  1725.65
                             1727.86  1727.99  1768.45  1792.08  1792.14
                             1853.26  1895.99  1896.00  1896.98  1922.32
                             1944.15  1944.26  1945.24  1957.79  2004.30
                             2004.44  2056.62  2122.81  2122.89  2127.82
                             2128.53  2128.55  2183.15  2183.19  2184.94
                             2319.15  2319.17  2319.28  2335.19  2335.22
                             2345.88  2353.99  2354.01  2430.31  2433.18
                             2433.20  4328.05  4328.22  4328.50  4545.82
                             4545.86  4545.90  4556.91  4557.01  4557.03
                             4571.86  4571.98  4572.05  4574.21  4575.66
                             4575.70  4582.57  4582.66  4582.68  4592.46
                             4592.51  4592.59

 Zero-point correction=                           0.405789 (Hartree/Particle)
 Thermal correction to Energy=                    0.430387
 Thermal correction to Enthalpy=                  0.431331
 Thermal correction to Gibbs Free Energy=         0.346621
 Sum of electronic and zero-point Energies=          -1205.692990
 Sum of electronic and thermal Energies=             -1205.668392
 Sum of electronic and thermal Enthalpies=           -1205.667448
 Sum of electronic and thermal Free Energies=        -1205.752159

                     E (Thermal)             CV                S
                      KCal/Mol        Cal/Mol-Kelvin    Cal/Mol-Kelvin
 Total                  270.072             96.527            178.289
 Electronic               0.000              0.000              0.000
 Translational            0.889              2.981             43.753
 Rotational               0.889              2.981             38.052
 Vibrational            268.295             90.565             96.483
 Vibration     1          0.593              1.985              6.464
 Vibration     2          0.593              1.985              6.191
 Vibration     3          0.593              1.985              6.109
 Vibration     4          0.593              1.984              5.923
 Vibration     5          0.593              1.984              5.916
 Vibration     6          0.593              1.984              5.885
 Vibration     7          0.597              1.972              4.352
 Vibration     8          0.597              1.972              4.348
 Vibration     9          0.599              1.964              3.942
 Vibration    10          0.610              1.929              3.045
 Vibration    11          0.611              1.927              3.000
 Vibration    12          0.611              1.927              2.999
 Vibration    13          0.620              1.898              2.617
 Vibration    14          0.621              1.894              2.576
 Vibration    15          0.621              1.894              2.574
 Vibration    16          0.659              1.773              1.775
 Vibration    17          0.665              1.754              1.695
 Vibration    18          0.666              1.754              1.694
 Vibration    19          0.683              1.701              1.500
 Vibration    20          0.683              1.701              1.500
 Vibration    21          0.688              1.687              1.457
 Vibration    22          0.712              1.618              1.267
 Vibration    23          0.712              1.618              1.266
 Vibration    24          0.761              1.482              0.984
 Vibration    25          0.783              1.425              0.890
 Vibration    26          0.783              1.425              0.890
 Vibration    27          0.785              1.420              0.882
 Vibration    28          0.820              1.333              0.758
 Vibration    29          0.820              1.332              0.758
 Vibration    30          0.868              1.221              0.626
 Vibration    31          0.882              1.191              0.594
 Vibration    32          0.882              1.190              0.594
 Vibration    33          0.900              1.150              0.554
 Vibration    34          0.900              1.150              0.554
 Vibration    35          0.915              1.118              0.524
 Vibration    36          0.941              1.066              0.478
 Vibration    37          0.960              1.029              0.447
 Vibration    38          0.960              1.029              0.447

 Normal termination of Gaussian 16 at Sun Aug  2 09:29:59 2020.
