 Gaussian 16, Revision C.01,
 Gaussian 16:  ES64L-G16RevC.01  3-Jul-2019

 --------------------------------------------------------------------
 #P B3LYP/6-311++G(d,p) EmpiricalDispersion=GD3 freq(noraman) SCF=YQC
 --------------------------------------------------------------------

 ---------------------------------
 Restart from F_Aldehyde_Azine.log
 ---------------------------------
 Symbolic Z-matrix:
 Charge =  0 Multiplicity = 1

                         Standard orientation:
 ---------------------------------------------------------------------
 Center     Atomic      Atomic             Coordinates (Angstroms)
 Number     Number       Type             X           Y           Z
 ---------------------------------------------------------------------
      1          9           0       -2.670049   -0.518493   -0.000110
      2          6           0       -1.353911   -0.301887   -0.000122
      3          6           0       -0.917200    1.011997   -0.000117
      4          9           0       -1.849540    1.981706   -0.000107
      5          6           0        0.441092    1.369383   -0.000117
      6          6           0        1.353911    0.301887   -0.000122
      7          9           0        2.670049    0.518493   -0.000110
      8          6           0        0.917200   -1.011997   -0.000117
      9          9           0        1.849540   -1.981706   -0.000107
     10          6           0       -0.441092   -1.369383   -0.000117
     11          6           0        0.794961    2.783774   -0.000098
     12          7           0        2.012677    3.195681   -0.000152
     13          1           0       -0.027635    3.498930    0.000003
     14          7           0        2.092058    4.580584   -0.000049
     15          6           0        3.310054    4.995354   -0.000142
     16          6           0        3.653445    6.413562    0.000023
     17          1           0        4.128081    4.269649   -0.000220
     18          6           0        5.007062    6.783281    0.000151
     19          6           0        5.374466    8.125971    0.000298
     20          1           0        5.771019    6.012653    0.000138
     21          6           0        4.391997    9.114434    0.000311
     22          1           0        6.423088    8.400204    0.000400
     23          6           0        3.040234    8.756201    0.000184
     24          1           0        4.675291   10.160960    0.000414
     25          6           0        2.670049    7.418715    0.000044
     26          1           0        2.277291    9.526410    0.000191
     27          1           0        1.626518    7.129861   -0.000054
     28          6           0       -0.794961   -2.783774   -0.000098
     29          7           0       -2.012677   -3.195681   -0.000152
     30          1           0        0.027635   -3.498930    0.000003
     31          7           0       -2.092058   -4.580584   -0.000049
     32          6           0       -3.310054   -4.995354   -0.000142
     33          6           0       -3.653445   -6.413562    0.000023
     34          1           0       -4.128081   -4.269649   -0.000220
     35          6           0       -5.007062   -6.783281    0.000151
     36          6           0       -5.374466   -8.125971    0.000298
     37          1           0       -5.771019   -6.012653    0.000138
     38          6           0       -4.391997   -9.114434    0.000311
     39          1           0       -6.423088   -8.400204    0.000400
     40          6           0       -3.040234   -8.756201    0.000184
     41          1           0       -4.675291  -10.160960    0.000414
     42          6           0       -2.670049   -7.418715    0.000044
     43          1           0       -2.277291   -9.526410    0.000191
     44          1           0       -1.626518   -7.129861   -0.000054
 ---------------------------------------------------------------------

 SCF Done:  E(RB3LYP) =  -1465.46117284     a.u. after    6 cycles
 SCF Done:  E(RB3LYP) =  -1465.46119628     A.U. after   10 cycles

 The electronic state is 1-A.
 Alpha  occ. eigenvalues --  -24.72200 -24.72199 -24.71469 -24.71468 -14.35481
 Alpha  occ. eigenvalues --  -14.35481 -14.34752 -14.34752 -10.29893 -10.29892
 Alpha  occ. eigenvalues --  -10.29829 -10.29828 -10.23665 -10.23664 -10.23614
 Alpha  occ. eigenvalues --  -10.23614 -10.22927 -10.22927 -10.20195 -10.20195
 Alpha  occ. eigenvalues --  -10.19610 -10.19610 -10.19467 -10.19467 -10.19207
 Alpha  occ. eigenvalues --  -10.19207 -10.19125 -10.19125 -10.19066 -10.19066
 Alpha  occ. eigenvalues --   -1.26966  -1.26902  -1.25338  -1.25296  -1.01596
 Alpha  occ. eigenvalues --   -1.01585  -0.91986  -0.89102  -0.88558  -0.86782
 Alpha  occ. eigenvalues --   -0.85819  -0.81390  -0.78807  -0.77816  -0.77111
 Alpha  occ. eigenvalues --   -0.76623  -0.76524  -0.72227  -0.66905  -0.66894
 Alpha  occ. eigenvalues --   -0.65669  -0.63251  -0.62997  -0.62123  -0.61832
 Alpha  occ. eigenvalues --   -0.60215  -0.58306  -0.58073  -0.56560  -0.56364
 Alpha  occ. eigenvalues --   -0.55342  -0.54077  -0.53166  -0.52966  -0.52734
 Alpha  occ. eigenvalues --   -0.51530  -0.50809  -0.50082  -0.49401  -0.48940
 Alpha  occ. eigenvalues --   -0.48444  -0.47756  -0.47162  -0.46637  -0.45960
 Alpha  occ. eigenvalues --   -0.45883  -0.45285  -0.44278  -0.43999  -0.43986
 Alpha  occ. eigenvalues --   -0.43155  -0.42998  -0.42936  -0.42723  -0.40791
 Alpha  occ. eigenvalues --   -0.40593  -0.39519  -0.39157  -0.37699  -0.37426
 Alpha  occ. eigenvalues --   -0.37203  -0.36458  -0.36453  -0.35094  -0.34923
 Alpha  occ. eigenvalues --   -0.34359  -0.31588  -0.28979  -0.27423  -0.27411
 Alpha  occ. eigenvalues --   -0.26905  -0.25644  -0.25550  -0.25516  -0.23747
 Alpha virt. eigenvalues --   -0.11487  -0.07875  -0.05311  -0.03043  -0.02904
 Alpha virt. eigenvalues --   -0.02755  -0.01819  -0.01679  -0.00967  -0.00922
 Alpha virt. eigenvalues --    0.00356   0.00454   0.01242   0.01585   0.01597

 Mulliken charges:
               1
     1  F   -0.120498
     2  C   -0.636476
     3  C   -1.198007
     4  F   -0.179031
     5  C    1.849260
     6  C   -0.636476
     7  F   -0.120498
     8  C   -1.198007
     9  F   -0.179031
    10  C    1.849260
    11  C    0.021318
    12  N    0.063372
    13  H    0.201259
    14  N    0.013037
    15  C   -0.572514
    16  C    1.067772
    17  H    0.203660
    18  C   -0.646646
    19  C   -0.334663
    20  H    0.154029
    21  C   -0.329143
    22  H    0.174235
    23  C   -0.446047
    24  H    0.159966
    25  C    0.180887
    26  H    0.186445
    27  H    0.187783
    28  C    0.021318
    29  N    0.063372
    30  H    0.201259
    31  N    0.013037
    32  C   -0.572514
    33  C    1.067772
    34  H    0.203660
    35  C   -0.646646
    36  C   -0.334663
    37  H    0.154029
    38  C   -0.329143
    39  H    0.174235
    40  C   -0.446047
    41  H    0.159966
    42  C    0.180887
    43  H    0.186445
    44  H    0.187783
 Sum of Mulliken charges =   0.00000

 Dipole moment (field-independent basis, Debye):
    X=             -0.0000    Y=              0.0000    Z=              0.0002  Tot=              0.0002
 Quadrupole moment (field-independent basis, Debye-Ang):
   XX=           -150.9534   YY=           -116.3901   ZZ=           -175.7316
   XY=             30.0600   XZ=              0.0000   YZ=             -0.0000

  Exact polarizability:     434.681     275.180     754.794      -0.000      -0.000     143.770
 Approx polarizability:     682.919     272.971     886.645      -0.000      -0.000     227.422

                      1                      2                      3
                      A                      B                      B
 Frequencies --     10.1774                20.5689                21.0673
 Red. masses --      7.3824                 4.8946                 6.8107
 Frc consts  --      0.0005                 0.0012                 0.0018
 IR Inten    --      0.4301                 0.0000                 0.5569

                      4                      5                      6
                      A                      B                      A
 Frequencies --     21.6782                35.5669                46.6204
 Red. masses --      3.6953                 7.6497                 7.1529
 Frc consts  --      0.0010                 0.0057                 0.0092
 IR Inten    --      0.0035                 0.0000                 0.0000

                      7                      8                      9
                      A                      B                      A
 Frequencies --     53.3324                71.8630               108.1956
 Red. masses --      6.6242                 5.2057                 6.9341
 Frc consts  --      0.0111                 0.0158                 0.0478
 IR Inten    --      2.3067                 0.0000                 0.0000

                     10                     11                     12
                      B                      A                      A
 Frequencies --    110.0956               116.1350               125.4914
 Red. masses --      6.0794                 5.6145                16.6325
 Frc consts  --      0.0434                 0.0446                 0.1543
 IR Inten    --      0.1033                 4.5824                 0.4254

                     13                     14                     15
                      B                      A                      B
 Frequencies --    126.3166               160.4748               167.0179
 Red. masses --      6.4236                 3.1316                 3.5151
 Frc consts  --      0.0604                 0.0475                 0.0578
 IR Inten    --      0.0000                 6.2899                 0.0000

                     16                     17                     18
                      A                      A                      B
 Frequencies --    174.4290               193.8808               212.6508
 Red. masses --      7.6527                 8.9869                 9.5750
 Frc consts  --      0.1372                 0.1990                 0.2551
 IR Inten    --      0.0000                11.4761                 2.0416

                     19                     20                     21
                      B                      A                      A
 Frequencies --    249.9281               285.7567               286.4852
 Red. masses --      4.7260                 3.2160                 7.9721
 Frc consts  --      0.1739                 0.1547                 0.3855
 IR Inten    --      0.0000                19.1783                 0.0025

                     22                     23                     24
                      B                      A                      B
 Frequencies --    287.0496               319.5002               319.5562
 Red. masses --      7.1649                16.1521                 4.6773
 Frc consts  --      0.3478                 0.9714                 0.2814
 IR Inten    --      3.2969                 0.0000                 0.0000

                     25                     26                     27
                      B                      A                      B
 Frequencies --    326.4895               357.0716               371.1209
 Red. masses --     18.1825                 7.7067                10.4322
 Frc consts  --      1.1419                 0.5789                 0.8466
 IR Inten    --      1.0441                 0.0407                10.8599

                     28                     29                     30
                      B                      A                      A
 Frequencies --    412.0917               412.1469               413.6652
 Red. masses --      2.9120                 2.8796                 9.4168
 Frc consts  --      0.2914                 0.2882                 0.9494
 IR Inten    --      0.0000                 0.1131                 0.0000

                     31                     32                     33
                      B                      A                      B
 Frequencies --    415.1187               445.3049               455.3328
 Red. masses --     11.8088                12.7837                 6.0510
 Frc consts  --      1.1989                 1.4936                 0.7392
 IR Inten    --      0.0000                 0.0000                 0.0000

                     34                     35                     36
                      B                      A                      A
 Frequencies --    469.8940               480.9963               515.2777
 Red. masses --      9.6433                 8.9564                10.5656
 Frc consts  --      1.2545                 1.2209                 1.6528
 IR Inten    --      5.7149                 0.0000                 0.0000

                     37                     38                     39
                      A                      B                      B
 Frequencies --    521.6706               524.0853               528.3117
 Red. masses --      3.1387                 7.4846                 3.5341
 Frc consts  --      0.5033                 1.2112                 0.5812
 IR Inten    --     32.9403                 7.5734                 0.0000

                     40                     41                     42
                      A                      B                      A
 Frequencies --    631.3934               631.6149               657.8588
 Red. masses --      6.4812                 6.5066                 6.6876
 Frc consts  --      1.5223                 1.5293                 1.7053
 IR Inten    --      0.0000                 0.2069                 0.0000

                     43                     44                     45
                      B                      A                      A
 Frequencies --    662.2912               673.4842               688.8433
 Red. masses --      6.6792                 8.1855                12.0440
 Frc consts  --      1.7261                 2.1875                 3.3672
 IR Inten    --     15.8793                 5.2033                 0.5950

                     46                     47                     48
                      B                      A                      A
 Frequencies --    701.9297               702.1550               705.2303
 Red. masses --      1.7759                 1.7661                 5.8993
 Frc consts  --      0.5155                 0.5130                 1.7287
 IR Inten    --      0.0000                82.5612                 0.0000

                     49                     50                     51
                      B                      B                      B
 Frequencies --    711.5019               717.3830               776.1211
 Red. masses --     10.0007                 7.9142                 1.7861
 Frc consts  --      2.9828                 2.3997                 0.6339
 IR Inten    --      0.0000                71.7345                 0.0000

                     52                     53                     54
                      A                      A                      A
 Frequencies --    776.3318               826.7276               857.8908
 Red. masses --      1.7930                10.2269                 1.2504
 Frc consts  --      0.6367                 4.1183                 0.5422
 IR Inten    --     64.4954                 0.0000                 0.0437

                     55                     56                     57
                      B                      B                      A
 Frequencies --    857.8931               876.8843               886.5758
 Red. masses --      1.2504                 4.5424                 4.2868
 Frc consts  --      0.5422                 2.0579                 1.9852
 IR Inten    --      0.0000                13.2877                 0.0000

                     58                     59                     60
                      B                      A                      B
 Frequencies --    938.2979               938.3469               953.4726
 Red. masses --      1.3583                 1.3591                 5.8155
 Frc consts  --      0.7046                 0.7050                 3.1149
 IR Inten    --      0.0000                 0.4123                86.9931

                     61                     62                     63
                      B                      A                      B
 Frequencies --    988.9413               990.3545               993.2246
 Red. masses --      1.4786                 1.4910                 1.3687
 Frc consts  --      0.8520                 0.8616                 0.7955
 IR Inten    --      0.0000                33.9150                 0.0000

                     64                     65                     66
                      A                      B                      A
 Frequencies --    993.2390              1005.7030              1005.8389
 Red. masses --      1.3689                 1.3528                 1.3533
 Frc consts  --      0.7957                 0.8062                 0.8067
 IR Inten    --      0.0020                 0.0000                 0.0642

                     67                     68                     69
                      B                      A                      B
 Frequencies --   1014.0107              1014.3022              1018.0858
 Red. masses --      6.3383                 6.2779                 1.5003
 Frc consts  --      3.8398                 3.8054                 0.9162
 IR Inten    --     12.8152                 0.0000                 0.0000

                     70                     71                     72
                      A                      B                      A
 Frequencies --   1018.1842              1027.3264              1047.5861
 Red. masses --      1.5019                 9.3810                 2.1678
 Frc consts  --      0.9174                 5.8333                 1.4017
 IR Inten    --      8.2376                65.6476                 0.0000

                     73                     74                     75
                      B                      A                      B
 Frequencies --   1047.9312              1057.3118              1071.2809
 Red. masses --      2.1380                 6.8589                 7.7411
 Frc consts  --      1.3833                 4.5177                 5.2343
 IR Inten    --     17.6333                 0.0000               102.1041

                     76                     77                     78
                      A                      B                      A
 Frequencies --   1109.2685              1110.8353              1121.7631
 Red. masses --      1.7133                 1.6342                 6.7829
 Frc consts  --      1.2421                 1.1881                 5.0288
 IR Inten    --      0.0000                11.7673                 0.0000

                     79                     80                     81
                      A                      B                      A
 Frequencies --   1178.4136              1192.6601              1192.6685
 Red. masses --      6.2228                 1.1250                 1.1253
 Frc consts  --      5.0913                 0.9429                 0.9431
 IR Inten    --      0.0000                 2.7741                 0.0000

                     82                     83                     84
                      B                      A                      B
 Frequencies --   1205.5105              1205.7552              1246.1932
 Red. masses --      1.1530                 1.1521                 2.2093
 Frc consts  --      0.9872                 0.9869                 2.0215
 IR Inten    --     60.8703                 0.0000                46.9856

                     85                     86                     87
                      A                      B                      B
 Frequencies --   1246.9962              1298.0213              1330.3065
 Red. masses --      2.1903                 4.0028                 4.4060
 Frc consts  --      2.0067                 3.9736                 4.5940
 IR Inten    --      0.0000                30.5924                92.1632

                     88                     89                     90
                      A                      B                      A
 Frequencies --   1331.9255              1335.5679              1355.3700
 Red. masses --      2.9360                 5.0854                 2.0287
 Frc consts  --      3.0687                 5.3445                 2.1958
 IR Inten    --      0.0000                 2.0887                 0.0000

                     91                     92                     93
                      B                      A                      B
 Frequencies --   1355.8525              1365.0192              1371.6400
 Red. masses --      1.9249                 1.3212                 1.4712
 Frc consts  --      2.0849                 1.4504                 1.6308
 IR Inten    --     14.9956                 0.0000                47.5265

                     94                     95                     96
                      A                      B                      A
 Frequencies --   1397.2682              1411.6158              1414.0754
 Red. masses --      3.2156                 1.8507                 2.6205
 Frc consts  --      3.6989                 2.1728                 3.0874
 IR Inten    --      0.0000                24.7632                 0.0000

                     97                     98                     99
                      B                      B                      A
 Frequencies --   1470.0245              1475.6516              1475.8787
 Red. masses --      8.8382                 2.3163                 2.2641
 Frc consts  --     11.2528                 2.9717                 2.9057
 IR Inten    --    152.8548                51.2786                 0.0000

                    100                    101                    102
                      B                      A                      B
 Frequencies --   1502.0760              1524.6168              1525.0680
 Red. masses --     10.4610                 2.2791                 2.2784
 Frc consts  --     13.9061                 3.1212                 3.1222
 IR Inten    --    237.3748                 0.0000                 2.9922

                    103                    104                    105
                      A                      B                      A
 Frequencies --   1558.5364              1589.6427              1603.9954
 Red. masses --      8.6233                 6.3471                 6.9665
 Frc consts  --     12.3413                 9.4499                10.5601
 IR Inten    --      0.0000               384.3565                 0.0000

                    106                    107                    108
                      B                      A                      A
 Frequencies --   1619.0183              1620.0166              1642.7434
 Red. masses --      5.6481                 5.9844                 5.5632
 Frc consts  --      8.7228                 9.2535                 8.8454
 IR Inten    --     24.6113                 0.0000                 0.0000

                    109                    110                    111
                      B                      A                      B
 Frequencies --   1643.1033              1668.5512              1679.0718
 Red. masses --      5.5778                11.6384                 7.4709
 Frc consts  --      8.8724                19.0908                12.4098
 IR Inten    --      1.2927                 0.0000               559.3553

                    112                    113                    114
                      A                      A                      B
 Frequencies --   1679.4160              3071.7861              3071.7958
 Red. masses --      7.3625                 1.0880                 1.0880
 Frc consts  --     12.2347                 6.0489                 6.0489
 IR Inten    --      0.0000                 0.0000                32.7380

                    115                    116                    117
                      B                      A                      A
 Frequencies --   3110.9392              3111.1618              3159.4651
 Red. masses --      1.0878                 1.0879                 1.0867
 Frc consts  --      6.2027                 6.2043                 6.3916
 IR Inten    --     27.1042                 0.0000                 0.0000

                    118                    119                    120
                      B                      B                      A
 Frequencies --   3159.4651              3166.6905              3166.6980
 Red. masses --      1.0867                 1.0884                 1.0884
 Frc consts  --      6.3916                 6.4306                 6.4306
 IR Inten    --      6.4318                 0.1608                 0.0000

                    121                    122                    123
                      A                      B                      B
 Frequencies --   3177.7957              3177.7979              3188.9872
 Red. masses --      1.0919                 1.0919                 1.0964
 Frc consts  --      6.4966                 6.4966                 6.5696
 IR Inten    --      0.0000                32.5596                55.0315

                    124                    125                    126
                      A                      B                      A
 Frequencies --   3189.0144              3199.9601              3199.9722
 Red. masses --      1.0964                 1.0946                 1.0946
 Frc consts  --      6.5697                 6.6035                 6.6037
 IR Inten    --      0.0000                16.4438                 0.0000

 - Thermochemistry -
 -------------------
 Temperature   298.150 Kelvin.  Pressure   1.00000 Atm.
 Atom     1 has atomic number  9 and mass  18.99840

 Molecular mass:   410.11546 amu.
 Principal axes and moments of inertia in atomic units:
                           1         2         3
     Eigenvalues --  2493.26785********************
           X            0.46646   0.88454   0.00000
           Y            0.88454  -0.46646   0.00000
           Z            0.00000   0.00000   1.00000
 This molecule is an asymmetric top.
 Rotational symmetry number  2.
 Warning -- assumption of classical behavior for rotation
           may cause significant error
 Rotational temperatures (Kelvin)      0.03474     0.00167     0.00160
 Rotational constants (GHZ):           0.72385     0.03487     0.03327
 Zero-point vibrational energy     824488.0 (Joules/Mol)
                                  197.05736 (Kcal/Mol)
 Warning -- explicit consideration of  39 degrees of freedom as
           vibrations may cause significant error
 Vibrational temperatures:     14.64    29.59    30.31    31.19    51.17
          (Kelvin)             67.08    76.73   103.39   155.67   158.40
                              167.09   180.55   181.74   230.89   240.30
                              250.96   278.95   305.96   359.59   411.14
                              412.19   413.00   459.69   459.77   469.75
                              513.75   533.96   592.91   592.99   595.17
                              597.26   640.69   655.12   676.07   692.05
                              741.37   750.57   754.04   760.12   908.43
                              908.75   946.51   952.89   968.99   991.09
                             1009.92  1010.24  1014.67  1023.69  1032.15
                             1116.67  1116.97  1189.48  1234.31  1234.32
                             1261.64  1275.58  1350.00  1350.07  1371.83
                             1422.87  1424.90  1429.03  1429.05  1446.98
                             1447.18  1458.94  1459.35  1464.80  1464.94
                             1478.09  1507.24  1507.74  1521.24  1541.33
                             1595.99  1598.24  1613.97  1695.47  1715.97
                             1715.98  1734.46  1734.81  1792.99  1794.15
                             1867.56  1914.01  1916.34  1921.58  1950.08
                             1950.77  1963.96  1973.48  2010.36  2031.00
                             2034.54  2115.04  2123.13  2123.46  2161.15
                             2193.58  2194.23  2242.39  2287.14  2307.79
                             2329.41  2330.84  2363.54  2364.06  2400.67
                             2415.81  2416.31  4419.62  4419.63  4475.95
                             4476.27  4545.77  4545.77  4556.16  4556.17
                             4572.14  4572.14  4588.24  4588.28  4604.03
                             4604.05

 Zero-point correction=                           0.314031 (Hartree/Particle)
 Thermal correction to Energy=                    0.339781
 Thermal correction to Enthalpy=                  0.340725
 Thermal correction to Gibbs Free Energy=         0.253892
 Sum of electronic and zero-point Energies=          -1465.147165
 Sum of electronic and thermal Energies=             -1465.121415
 Sum of electronic and thermal Enthalpies=           -1465.120471
 Sum of electronic and thermal Free Energies=        -1465.207304

                     E (Thermal)             CV                S
                      KCal/Mol        Cal/Mol-Kelvin    Cal/Mol-Kelvin
 Total                  213.216             96.417            182.755
 Electronic               0.000              0.000              0.000
 Translational            0.889              2.981             43.925
 Rotational               0.889              2.981             35.813
 Vibrational            211.438             90.455            103.017
 Vibration     1          0.593              1.987              7.976
 Vibration     2          0.593              1.986              6.579
 Vibration     3          0.593              1.985              6.531
 Vibration     4          0.593              1.985              6.474
 Vibration     5          0.594              1.982              5.492
 Vibration     6          0.595              1.979              4.956
 Vibration     7          0.596              1.976              4.690
 Vibration     8          0.598              1.967              4.102
 Vibration     9          0.606              1.943              3.301
 Vibration    10          0.606              1.941              3.267
 Vibration    11          0.608              1.936              3.164
 Vibration    12          0.610              1.928              3.014
 Vibration    13          0.611              1.927              3.001
 Vibration    14          0.622              1.891              2.544
 Vibration    15          0.624              1.883              2.469
 Vibration    16          0.627              1.874              2.387
 Vibration    17          0.635              1.848              2.190
 Vibration    18          0.644              1.822              2.021
 Vibration    19          0.663              1.763              1.731
 Vibration    20          0.684              1.700              1.499
 Vibration    21          0.684              1.699              1.495
 Vibration    22          0.684              1.698              1.491
 Vibration    23          0.705              1.636              1.313
 Vibration    24          0.705              1.636              1.312
 Vibration    25          0.710              1.623              1.277
 Vibration    26          0.732              1.561              1.135
 Vibration    27          0.743              1.532              1.075
 Vibration    28          0.776              1.444              0.919
 Vibration    29          0.776              1.444              0.919
 Vibration    30          0.777              1.441              0.914
 Vibration    31          0.779              1.437              0.909
 Vibration    32          0.805              1.371              0.810
 Vibration    33          0.814              1.349              0.780
 Vibration    34          0.827              1.317              0.738
 Vibration    35          0.837              1.292              0.707
 Vibration    36          0.870              1.216              0.621
 Vibration    37          0.877              1.202              0.606
 Vibration    38          0.879              1.197              0.601
 Vibration    39          0.883              1.187              0.591

 Optimization completed.
    -- Stationary point found.
 Normal termination of Gaussian 16 at Mon Aug  3 21:19:02 2020.
