 Gaussian 16, Revision C.01,
 Gaussian 16:  ES64L-G16RevC.01  3-Jul-2019

 --------------------------------------------------------------------
 #P B3LYP/6-311++G(d,p) EmpiricalDispersion=GD3 freq(noraman) SCF=YQC
 --------------------------------------------------------------------

 --------------------------------------------
 Restart from 3_Phenyl_PrimaryAmine_Imine.log
 --------------------------------------------
 Symbolic Z-matrix:
 Charge =  0 Multiplicity = 1

                         Standard orientation:
 ---------------------------------------------------------------------
 Center     Atomic      Atomic             Coordinates (Angstroms)
 Number     Number       Type             X           Y           Z
 ---------------------------------------------------------------------
      1          6           0        1.114583   -0.850135   -0.430343
      2          6           0       -0.177130   -1.387300   -0.445632
      3          6           0       -1.293576   -0.540481   -0.429778
      4          6           0       -1.112877    0.846761   -0.445005
      5          6           0        0.178711    1.390242   -0.429607
      6          6           0        1.289745    0.540138   -0.445736
      7          1           0       -1.960488    1.517359   -0.510725
      8          1           0        2.294270    0.938878   -0.512099
      9          1           0       -0.334003   -2.456642   -0.511763
     10          7           0        2.269399   -1.650774   -0.471570
     11          6           0        2.333044   -2.716417    0.227538
     12          6           0        3.482038   -3.629175    0.185944
     13          6           0        3.485158   -4.763842    1.008300
     14          6           0        4.560350   -5.649280    0.990558
     15          6           0        5.644197   -5.407662    0.148791
     16          6           0        5.649350   -4.277911   -0.675294
     17          6           0        4.578216   -3.394740   -0.659695
     18          1           0        1.524055   -3.000717    0.915127
     19          1           0        2.640186   -4.951635    1.663394
     20          1           0        4.552167   -6.524229    1.630510
     21          1           0        6.482520   -6.095091    0.132160
     22          1           0        6.492694   -4.091336   -1.330743
     23          1           0        4.567176   -2.516483   -1.293494
     24          7           0        0.294387    2.790729   -0.470095
     25          6           0        1.186636    3.378512    0.227638
     26          6           0        1.402405    4.829969    0.186109
     27          6           0        2.386616    5.399529    1.005070
     28          6           0        2.615958    6.773365    0.987029
     29          6           0        1.861670    7.591674    0.148519
     30          6           0        0.877474    7.031762   -0.672052
     31          6           0        0.648150    5.662563   -0.656252
     32          1           0        1.838680    2.819953    0.913866
     33          1           0        2.974141    4.761294    1.657650
     34          1           0        3.380269    7.203371    1.624261
     35          1           0        2.037885    8.661389    0.131738
     36          1           0        0.291764    7.669203   -1.324942
     37          1           0       -0.109349    5.214263   -1.287422
     38          7           0       -2.564329   -1.140353   -0.470759
     39          6           0       -3.519307   -0.662291    0.227728
     40          6           0       -4.884287   -1.200889    0.185659
     41          6           0       -5.869186   -0.634978    1.006310
     42          6           0       -7.173710   -1.123063    0.987829
     43          6           0       -7.505803   -2.183499    0.147074
     44          6           0       -6.529280   -2.754169   -0.675252
     45          6           0       -5.228760   -2.268433   -0.658954
     46          1           0       -3.361370    0.180824    0.914954
     47          1           0       -5.609803    0.191482    1.660582
     48          1           0       -7.927893   -0.677462    1.626412
     49          1           0       -8.520378   -2.565547    0.129884
     50          1           0       -6.788905   -3.578600   -1.329897
     51          1           0       -4.462135   -2.698981   -1.291462
 ---------------------------------------------------------------------

 SCF Done:  E(RB3LYP) =  -1206.09924036     a.u. after    6 cycles
 SCF Done:  E(RB3LYP) =  -1206.09926666     A.U. after   10 cycles

 The electronic state is 1-A.
 Alpha  occ. eigenvalues --  -14.31743 -14.31742 -14.31742 -10.22558 -10.22558
 Alpha  occ. eigenvalues --  -10.22557 -10.21239 -10.21239 -10.21238 -10.19321
 Alpha  occ. eigenvalues --  -10.19320 -10.19320 -10.18927 -10.18926 -10.18926
 Alpha  occ. eigenvalues --  -10.18797 -10.18797 -10.18797 -10.18621 -10.18620
 Alpha  occ. eigenvalues --  -10.18620 -10.18494 -10.18493 -10.18493 -10.18310
 Alpha  occ. eigenvalues --  -10.18310 -10.18309 -10.17228 -10.17228 -10.17227
 Alpha  occ. eigenvalues --   -0.95153  -0.94226  -0.94225  -0.87284  -0.86955
 Alpha  occ. eigenvalues --   -0.86955  -0.84034  -0.78354  -0.78354  -0.76861
 Alpha  occ. eigenvalues --   -0.76005  -0.76004  -0.75919  -0.73864  -0.73864
 Alpha  occ. eigenvalues --   -0.66324  -0.66323  -0.66017  -0.62394  -0.62394
 Alpha  occ. eigenvalues --   -0.62113  -0.60764  -0.60763  -0.58991  -0.55944
 Alpha  occ. eigenvalues --   -0.55944  -0.53703  -0.52623  -0.52111  -0.52110
 Alpha  occ. eigenvalues --   -0.49187  -0.49014  -0.48958  -0.48958  -0.46662
 Alpha  occ. eigenvalues --   -0.46661  -0.46610  -0.44983  -0.44749  -0.44748
 Alpha  occ. eigenvalues --   -0.43870  -0.43653  -0.43652  -0.43318  -0.43293
 Alpha  occ. eigenvalues --   -0.43293  -0.39938  -0.39822  -0.39822  -0.38534
 Alpha  occ. eigenvalues --   -0.38047  -0.38046  -0.36869  -0.36868  -0.36134
 Alpha  occ. eigenvalues --   -0.35616  -0.35616  -0.35606  -0.35175  -0.35174
 Alpha  occ. eigenvalues --   -0.32620  -0.29596  -0.29594  -0.26830  -0.26819
 Alpha  occ. eigenvalues --   -0.26818  -0.26772  -0.26340  -0.26339  -0.25234
 Alpha  occ. eigenvalues --   -0.22403  -0.22403
 Alpha virt. eigenvalues --   -0.07315  -0.07314  -0.06444  -0.02380  -0.02380
 Alpha virt. eigenvalues --   -0.02363  -0.00892  -0.00660  -0.00660  -0.00285
 Alpha virt. eigenvalues --   -0.00284   0.00400   0.00613   0.00615   0.01135

 Mulliken charges:
               1
     1  C    0.212952
     2  C   -0.223518
     3  C    0.214425
     4  C   -0.223926
     5  C    0.216005
     6  C   -0.223045
     7  H    0.176380
     8  H    0.176322
     9  H    0.176382
    10  N    0.220160
    11  C   -0.527657
    12  C    1.050179
    13  C   -0.618862
    14  C   -0.379818
    15  C   -0.403570
    16  C   -0.183285
    17  C   -0.319329
    18  H    0.131683
    19  H    0.158535
    20  H    0.168196
    21  H    0.160470
    22  H    0.181775
    23  H    0.194140
    24  N    0.219907
    25  C   -0.527622
    26  C    1.049456
    27  C   -0.617500
    28  C   -0.379659
    29  C   -0.403512
    30  C   -0.183622
    31  C   -0.319489
    32  H    0.131583
    33  H    0.158585
    34  H    0.168187
    35  H    0.160460
    36  H    0.181806
    37  H    0.194036
    38  N    0.220061
    39  C   -0.527766
    40  C    1.049864
    41  C   -0.617375
    42  C   -0.379880
    43  C   -0.403492
    44  C   -0.183487
    45  C   -0.319786
    46  H    0.131561
    47  H    0.158567
    48  H    0.168191
    49  H    0.160465
    50  H    0.181795
    51  H    0.194072
 Sum of Mulliken charges =   0.00000

 Dipole moment (field-independent basis, Debye):
    X=              0.0014    Y=             -0.0004    Z=              2.5029  Tot=              2.5029
 Quadrupole moment (field-independent basis, Debye-Ang):
   XX=           -148.0878   YY=           -148.1223   ZZ=           -176.9920
   XY=             -0.0101   XZ=              0.0047   YZ=             -0.0039

  Exact polarizability:     511.313       0.001     511.192       0.020       0.013     228.908
 Approx polarizability:     692.715      -0.031     692.476       0.008       0.010     398.883

                      1                      2                      3
                      A                      A                      A
 Frequencies --     22.0629                25.3799                25.5807
 Red. masses --      5.6112                 4.9373                 5.3888
 Frc consts  --      0.0016                 0.0019                 0.0021
 IR Inten    --      0.9128                 0.1627                 0.1774

                      4                      5                      6
                      A                      A                      A
 Frequencies --     26.3116                26.4752                29.5742
 Red. masses --      3.9502                 4.1725                 3.8719
 Frc consts  --      0.0016                 0.0017                 0.0020
 IR Inten    --      0.1767                 0.1476                 0.0050

                      7                      8                      9
                      A                      A                      A
 Frequencies --     69.0949                69.2202                71.4148
 Red. masses --      5.3477                 5.3472                 5.0634
 Frc consts  --      0.0150                 0.0151                 0.0152
 IR Inten    --      0.1885                 0.1881                 0.0208

                     10                     11                     12
                      A                      A                      A
 Frequencies --    112.9299               113.0050               125.4788
 Red. masses --      4.6325                 4.6327                 5.2491
 Frc consts  --      0.0348                 0.0349                 0.0487
 IR Inten    --      1.0947                 1.0935                 0.4047

                     13                     14                     15
                      A                      A                      A
 Frequencies --    161.3613               184.1947               184.2949
 Red. masses --      6.2178                 5.4243                 5.4265
 Frc consts  --      0.0954                 0.1084                 0.1086
 IR Inten    --      1.2250                 4.1711                 4.1768

                     16                     17                     18
                      A                      A                      A
 Frequencies --    240.4403               248.7288               248.7698
 Red. masses --      4.1499                 3.5268                 3.5251
 Frc consts  --      0.1414                 0.1286                 0.1285
 IR Inten    --      9.7360                 2.7490                 2.7478

                     19                     20                     21
                      A                      A                      A
 Frequencies --    281.8182               281.9261               282.4270
 Red. masses --      4.1031                 4.0907                 3.7141
 Frc consts  --      0.1920                 0.1916                 0.1745
 IR Inten    --      4.1982                 4.1885                 3.5333

                     22                     23                     24
                      A                      A                      A
 Frequencies --    328.3812               328.4932               389.5762
 Red. masses --      5.3667                 5.3670                 5.6633
 Frc consts  --      0.3410                 0.3412                 0.5064
 IR Inten    --      0.8134                 0.8078                 2.6051

                     25                     26                     27
                      A                      A                      A
 Frequencies --    413.5610               413.5688               413.6708
 Red. masses --      2.8991                 2.8986                 2.8970
 Frc consts  --      0.2921                 0.2921                 0.2921
 IR Inten    --      0.0233                 0.0233                 0.1037

                     28                     29                     30
                      A                      A                      A
 Frequencies --    450.7262               450.8246               501.0926
 Red. masses --      5.0684                 5.0707                 3.1142
 Frc consts  --      0.6067                 0.6072                 0.4607
 IR Inten    --      9.9703                 9.9558                14.4839

                     31                     32                     33
                      A                      A                      A
 Frequencies --    511.0000               511.0100               540.8322
 Red. masses --      3.4098                 3.4102                 7.1213
 Frc consts  --      0.5246                 0.5247                 1.2273
 IR Inten    --      3.8807                 3.8775                28.0444

                     34                     35                     36
                      A                      A                      A
 Frequencies --    540.8651               570.8529               611.1489
 Red. masses --      7.1203                 7.3347                 4.6345
 Frc consts  --      1.2272                 1.4083                 1.0199
 IR Inten    --     28.0778                 1.3303                 0.3184

                     37                     38                     39
                      A                      A                      A
 Frequencies --    630.2817               630.2844               633.8186
 Red. masses --      5.8640                 5.8656                 6.3307
 Frc consts  --      1.3725                 1.3729                 1.4984
 IR Inten    --      3.7040                 3.7063                 0.1037

                     40                     41                     42
                      A                      A                      A
 Frequencies --    636.4909               636.5055               689.1415
 Red. masses --      5.4822                 5.4811                 5.8253
 Frc consts  --      1.3085                 1.3084                 1.6300
 IR Inten    --      7.4096                 7.4439                 1.9846

                     43                     44                     45
                      A                      A                      A
 Frequencies --    689.1486               699.8159               702.8994
 Red. masses --      5.8292                 2.0921                 1.8402
 Frc consts  --      1.6311                 0.6037                 0.5357
 IR Inten    --      1.9789                 9.8069                26.1394

                     46                     47                     48
                      A                      A                      A
 Frequencies --    702.9225               706.1832               754.2397
 Red. masses --      1.8407                 1.8456                 5.6806
 Frc consts  --      0.5359                 0.5423                 1.9040
 IR Inten    --     26.0222                73.9464                 0.1317

                     49                     50                     51
                      A                      A                      A
 Frequencies --    771.3907               771.4113               771.8534
 Red. masses --      1.7464                 1.7468                 1.7593
 Frc consts  --      0.6123                 0.6124                 0.6175
 IR Inten    --     22.5431                22.4199                45.1376

                     52                     53                     54
                      A                      A                      A
 Frequencies --    858.2147               858.2833               858.3034
 Red. masses --      1.3414                 1.2541                 1.2507
 Frc consts  --      0.5821                 0.5443                 0.5429
 IR Inten    --      2.8692                 0.3234                 0.2156

                     55                     56                     57
                      A                      A                      A
 Frequencies --    859.7818               864.0760               864.1243
 Red. masses --      2.1771                 2.3760                 2.3821
 Frc consts  --      0.9482                 1.0452                 1.0480
 IR Inten    --     13.6778                17.5213                17.5100

                     58                     59                     60
                      A                      A                      A
 Frequencies --    894.2877               894.3789               906.7188
 Red. masses --      1.9951                 1.9900                 2.8056
 Frc consts  --      0.9401                 0.9379                 1.3590
 IR Inten    --      0.1340                 0.1269                31.3602

                     61                     62                     63
                      A                      A                      A
 Frequencies --    935.9518               935.9825               936.4270
 Red. masses --      1.3780                 1.3779                 1.3832
 Frc consts  --      0.7112                 0.7112                 0.7146
 IR Inten    --      0.7861                 0.7846                 3.4057

                     64                     65                     66
                      A                      A                      A
 Frequencies --    990.8113               990.8249               990.8630
 Red. masses --      1.3604                 1.3601                 1.3585
 Frc consts  --      0.7868                 0.7867                 0.7858
 IR Inten    --      0.3650                 0.3391                 0.1631

                     67                     68                     69
                      A                      A                      A
 Frequencies --    997.5297               997.5751               999.0692
 Red. masses --      1.6993                 1.6987                 1.9927
 Frc consts  --      0.9963                 0.9960                 1.1719
 IR Inten    --     29.8178                29.8224                 2.6690

                     70                     71                     72
                      A                      A                      A
 Frequencies --   1005.7653              1007.2954              1007.3054
 Red. masses --      1.8182                 1.5010                 1.4996
 Frc consts  --      1.0836                 0.8973                 0.8965
 IR Inten    --      0.2924                18.9288                18.7876

                     73                     74                     75
                      A                      A                      A
 Frequencies --   1014.4911              1014.4980              1014.6242
 Red. masses --      6.0125                 6.0085                 6.2698
 Frc consts  --      3.6459                 3.6435                 3.8029
 IR Inten    --      1.2564                 1.2295                 0.0538

                     76                     77                     78
                      A                      A                      A
 Frequencies --   1017.8498              1029.3420              1029.3565
 Red. masses --      1.9726                 2.8186                 2.8128
 Frc consts  --      1.2041                 1.7595                 1.7560
 IR Inten    --      7.6773                26.3333                26.0931

                     79                     80                     81
                      A                      A                      A
 Frequencies --   1047.0803              1047.2347              1047.2467
 Red. masses --      2.1438                 2.1247                 2.1245
 Frc consts  --      1.3848                 1.3729                 1.3728
 IR Inten    --      0.1024                13.0686                13.0816

                     82                     83                     84
                      A                      A                      A
 Frequencies --   1106.3926              1106.8852              1106.9029
 Red. masses --      1.5938                 1.5803                 1.5806
 Frc consts  --      1.1495                 1.1407                 1.1410
 IR Inten    --      7.8387                 4.1295                 4.1504

                     85                     86                     87
                      A                      A                      A
 Frequencies --   1161.2068              1161.2678              1191.1070
 Red. masses --      1.7327                 1.7327                 1.1273
 Frc consts  --      1.3765                 1.3767                 0.9423
 IR Inten    --     58.7095                58.8280                 1.6126

                     88                     89                     90
                      A                      A                      A
 Frequencies --   1191.1259              1191.1416              1202.4331
 Red. masses --      1.1274                 1.1275                 1.1878
 Frc consts  --      0.9424                 0.9425                 1.0119
 IR Inten    --      1.4991                 1.0993                 0.0569

                     91                     92                     93
                      A                      A                      A
 Frequencies --   1203.0575              1203.1022              1230.6320
 Red. masses --      1.1492                 1.1492                 2.7298
 Frc consts  --      0.9800                 0.9801                 2.4358
 IR Inten    --     16.4171                16.4065                 0.1306

                     94                     95                     96
                      A                      A                      A
 Frequencies --   1249.1660              1249.1703              1276.2508
 Red. masses --      2.4894                 2.4898                 1.6027
 Frc consts  --      2.2887                 2.2890                 1.5381
 IR Inten    --     16.0738                16.0991                 0.0000

                     97                     98                     99
                      A                      A                      A
 Frequencies --   1317.0388              1329.4385              1329.4672
 Red. masses --      3.1649                 2.7868                 2.7853
 Frc consts  --      3.2345                 2.9019                 2.9005
 IR Inten    --      2.8564                26.0633                26.0351

                    100                    101                    102
                      A                      A                      A
 Frequencies --   1330.1413              1340.0971              1354.0749
 Red. masses --      3.1559                 3.9902                 1.9480
 Frc consts  --      3.2898                 4.2220                 2.1044
 IR Inten    --      0.0148                 0.1607                 4.8493

                    103                    104                    105
                      A                      A                      A
 Frequencies --   1354.1162              1354.6827              1405.4468
 Red. masses --      1.9466                 1.8399                 1.4043
 Frc consts  --      2.1029                 1.9894                 1.6344
 IR Inten    --      4.8784                 2.5413                 8.4121

                    106                    107                    108
                      A                      A                      A
 Frequencies --   1405.4735              1422.7107              1462.9192
 Red. masses --      1.4045                 1.6216                 3.3400
 Frc consts  --      1.6346                 1.9339                 4.2115
 IR Inten    --      8.4104                 6.5236                 4.9223

                    109                    110                    111
                      A                      A                      A
 Frequencies --   1462.9596              1481.5881              1481.6639
 Red. masses --      3.3377                 2.1822                 2.2238
 Frc consts  --      4.2088                 2.8223                 2.8764
 IR Inten    --      4.8976                 7.0990                22.9401

                    112                    113                    114
                      A                      A                      A
 Frequencies --   1481.6812              1524.0604              1524.0678
 Red. masses --      2.2261                 2.2789                 2.2792
 Frc consts  --      2.8794                 3.1187                 3.1192
 IR Inten    --     23.6943                 1.4106                 1.3962

                    115                    116                    117
                      A                      A                      A
 Frequencies --   1524.4211              1602.1919              1602.2317
 Red. masses --      2.2799                 5.9236                 5.9229
 Frc consts  --      3.1216                 8.9591                 8.9585
 IR Inten    --      0.2306               281.4708               281.5428

                    118                    119                    120
                      A                      A                      A
 Frequencies --   1615.5564              1615.9002              1615.9180
 Red. masses --      5.4596                 5.4591                 5.4608
 Frc consts  --      8.3957                 8.3985                 8.4013
 IR Inten    --      2.5512                 2.1270                 2.1239

                    121                    122                    123
                      A                      A                      A
 Frequencies --   1639.7232              1640.9386              1640.9455
 Red. masses --      5.3616                 5.4036                 5.4029
 Frc consts  --      8.4934                 8.5727                 8.5717
 IR Inten    --      0.2921                 0.4838                 0.4866

                    124                    125                    126
                      A                      A                      A
 Frequencies --   1688.5652              1689.3442              1689.3928
 Red. masses --      7.9355                 7.7504                 7.7505
 Frc consts  --     13.3309                13.0319                13.0328
 IR Inten    --     21.0163               189.0854               189.7807

                    127                    128                    129
                      A                      A                      A
 Frequencies --   2998.5474              2998.5965              2998.6154
 Red. masses --      1.0856                 1.0856                 1.0856
 Frc consts  --      5.7509                 5.7511                 5.7511
 IR Inten    --     41.5114                36.3383                35.4210

                    130                    131                    132
                      A                      A                      A
 Frequencies --   3154.6866              3154.7410              3154.7586
 Red. masses --      1.0872                 1.0871                 1.0872
 Frc consts  --      6.3746                 6.3748                 6.3749
 IR Inten    --      5.1572                 5.1800                 4.8957

                    133                    134                    135
                      A                      A                      A
 Frequencies --   3163.5979              3163.6490              3163.6632
 Red. masses --      1.0877                 1.0877                 1.0877
 Frc consts  --      6.4141                 6.4143                 6.4144
 IR Inten    --      0.1765                 0.2073                 0.0855

                    136                    137                    138
                      A                      A                      A
 Frequencies --   3175.0469              3175.0981              3175.1121
 Red. masses --      1.0916                 1.0916                 1.0916
 Frc consts  --      6.4834                 6.4836                 6.4837
 IR Inten    --     17.6903                17.7415                17.4414

                    139                    140                    141
                      A                      A                      A
 Frequencies --   3186.7729              3186.8179              3186.8601
 Red. masses --      1.0960                 1.0960                 1.0960
 Frc consts  --      6.5581                 6.5583                 6.5583
 IR Inten    --     29.0638                31.6056                 8.1108

                    142                    143                    144
                      A                      A                      A
 Frequencies --   3191.8008              3191.8419              3192.2360
 Red. masses --      1.0903                 1.0903                 1.0913
 Frc consts  --      6.5446                 6.5448                 6.5519
 IR Inten    --      1.3478                 1.3456                 0.2071

                    145                    146                    147
                      A                      A                      A
 Frequencies --   3196.3013              3196.3941              3196.4155
 Red. masses --      1.0948                 1.0947                 1.0948
 Frc consts  --      6.5897                 6.5900                 6.5901
 IR Inten    --      9.1746                10.5281                 5.3654

 - Thermochemistry -
 -------------------
 Temperature   298.150 Kelvin.  Pressure   1.00000 Atm.
 Atom     1 has atomic number  6 and mass  12.00000

 Molecular mass:   387.17355 amu.
 Principal axes and moments of inertia in atomic units:
                           1         2         3
     Eigenvalues --  ******************************
           X            0.99991  -0.01347  -0.00008
           Y            0.01347   0.99991  -0.00003
           Z            0.00008   0.00003   1.00000
 This molecule is an asymmetric top.
 Rotational symmetry number  1.
 Warning -- assumption of classical behavior for rotation
           may cause significant error
 Rotational temperatures (Kelvin)      0.00428     0.00428     0.00220
 Rotational constants (GHZ):           0.08919     0.08917     0.04589
 Zero-point vibrational energy    1065310.0 (Joules/Mol)
                                  254.61520 (Kcal/Mol)
 Warning -- explicit consideration of  36 degrees of freedom as
           vibrations may cause significant error
 Vibrational temperatures:     31.74    36.52    36.80    37.86    38.09
          (Kelvin)             42.55    99.41    99.59   102.75   162.48
                              162.59   180.54   232.16   265.02   265.16
                              345.94   357.87   357.92   405.47   405.63
                              406.35   472.47   472.63   560.51   595.02
                              595.03   595.18   648.49   648.64   720.96
                              735.22   735.23   778.14   778.18   821.33
                              879.31   906.83   906.84   911.92   915.77
                              915.79   991.52   991.53  1006.88  1011.32
                             1011.35  1016.04  1085.18  1109.86  1109.89
                             1110.52  1234.78  1234.88  1234.91  1237.03
                             1243.21  1243.28  1286.68  1286.81  1304.57
                             1346.63  1346.67  1347.31  1425.56  1425.58
                             1425.63  1435.22  1435.29  1437.44  1447.07
                             1449.27  1449.29  1459.63  1459.64  1459.82
                             1464.46  1480.99  1481.01  1506.52  1506.74
                             1506.75  1591.85  1592.56  1592.59  1670.72
                             1670.81  1713.74  1713.76  1713.79  1730.03
                             1730.93  1731.00  1770.60  1797.27  1797.28
                             1836.24  1894.93  1912.77  1912.81  1913.78
                             1928.10  1948.21  1948.27  1949.09  2022.12
                             2022.16  2046.96  2104.81  2104.87  2131.67
                             2131.78  2131.81  2192.78  2192.79  2193.30
                             2305.20  2305.25  2324.43  2324.92  2324.95
                             2359.20  2360.94  2360.95  2429.47  2430.59
                             2430.66  4314.24  4314.31  4314.34  4538.89
                             4538.97  4538.99  4551.71  4551.79  4551.81
                             4568.18  4568.26  4568.28  4585.06  4585.12
                             4585.18  4592.29  4592.35  4592.92  4598.76
                             4598.90  4598.93

 Zero-point correction=                           0.405755 (Hartree/Particle)
 Thermal correction to Energy=                    0.430374
 Thermal correction to Enthalpy=                  0.431318
 Thermal correction to Gibbs Free Energy=         0.346530
 Sum of electronic and zero-point Energies=          -1205.693512
 Sum of electronic and thermal Energies=             -1205.668893
 Sum of electronic and thermal Enthalpies=           -1205.667949
 Sum of electronic and thermal Free Energies=        -1205.752737

                     E (Thermal)             CV                S
                      KCal/Mol        Cal/Mol-Kelvin    Cal/Mol-Kelvin
 Total                  270.064             96.566            178.452
 Electronic               0.000              0.000              0.000
 Translational            0.889              2.981             43.753
 Rotational               0.889              2.981             38.019
 Vibrational            268.286             90.604             96.681
 Vibration     1          0.593              1.985              6.439
 Vibration     2          0.593              1.985              6.161
 Vibration     3          0.593              1.985              6.146
 Vibration     4          0.593              1.985              6.090
 Vibration     5          0.593              1.985              6.077
 Vibration     6          0.593              1.984              5.858
 Vibration     7          0.598              1.969              4.179
 Vibration     8          0.598              1.969              4.175
 Vibration     9          0.598              1.968              4.114
 Vibration    10          0.607              1.939              3.218
 Vibration    11          0.607              1.939              3.217
 Vibration    12          0.610              1.928              3.014
 Vibration    13          0.622              1.890              2.534
 Vibration    14          0.631              1.861              2.285
 Vibration    15          0.631              1.861              2.284
 Vibration    16          0.658              1.779              1.800
 Vibration    17          0.662              1.765              1.740
 Vibration    18          0.662              1.765              1.739
 Vibration    19          0.681              1.707              1.523
 Vibration    20          0.681              1.707              1.522
 Vibration    21          0.681              1.706              1.519
 Vibration    22          0.712              1.619              1.268
 Vibration    23          0.712              1.619              1.267
 Vibration    24          0.758              1.492              1.002
 Vibration    25          0.777              1.441              0.914
 Vibration    26          0.777              1.441              0.914
 Vibration    27          0.777              1.441              0.914
 Vibration    28          0.810              1.359              0.794
 Vibration    29          0.810              1.359              0.793
 Vibration    30          0.856              1.248              0.655
 Vibration    31          0.866              1.226              0.631
 Vibration    32          0.866              1.226              0.631
 Vibration    33          0.896              1.160              0.563
 Vibration    34          0.896              1.160              0.563
 Vibration    35          0.927              1.094              0.503
 Vibration    36          0.970              1.008              0.431

 Normal termination of Gaussian 16 at Sun Aug  2 09:43:05 2020.
