 Gaussian 16, Revision C.01,
 Gaussian 16:  ES64L-G16RevC.01  3-Jul-2019

 --------------------------------------------------------------------
 #P B3LYP/6-311++G(d,p) EmpiricalDispersion=GD3 freq(noraman) SCF=YQC
 --------------------------------------------------------------------

 ---------------------------------------------------
 Restart from 3_Phenyl_BoronicAcid_BoronateEster.log
 ---------------------------------------------------
 Symbolic Z-matrix:
 Charge =  0 Multiplicity = 1

                         Standard orientation:
 ---------------------------------------------------------------------
 Center     Atomic      Atomic             Coordinates (Angstroms)
 Number     Number       Type             X           Y           Z
 ---------------------------------------------------------------------
      1          6           0        0.707010   -1.224445    0.000000
      2          6           0       -0.695497   -1.204804    0.000000
      3          6           0       -1.413860   -0.000114    0.000000
      4          6           0       -0.695598    1.204672    0.000000
      5          6           0        0.706879    1.224443    0.000000
      6          6           0        1.391123    0.000018    0.000000
      7          1           0       -1.238230    2.144400    0.000000
      8          1           0        2.476268    0.000090    0.000000
      9          1           0       -1.238003   -2.144603    0.000000
     10          5           0        1.476474   -2.557098    0.000000
     11          8           0        0.879305   -3.815130    0.000000
     12          8           0        2.864547   -2.668800    0.000000
     13          6           0        1.920011   -4.718899    0.000000
     14          6           0        3.127036   -4.021933    0.000000
     15          6           0        1.870891   -6.099270    0.000000
     16          6           0        4.347103   -4.669443    0.000000
     17          6           0        3.101454   -6.769043    0.000000
     18          6           0        4.312018   -6.070033    0.000000
     19          1           0        0.926690   -6.628564    0.000000
     20          1           0        5.277529   -4.116291    0.000000
     21          1           0        3.112612   -7.852467    0.000000
     22          1           0        5.244772   -6.621303    0.000000
     23          5           0        1.476229    2.557161    0.000000
     24          8           0        2.864288    2.669020    0.000000
     25          8           0        0.878931    3.815115    0.000000
     26          6           0        3.126632    4.022183    0.000000
     27          6           0        1.919529    4.719012    0.000000
     28          6           0        4.346629    4.669826    0.000000
     29          6           0        1.870246    6.099377    0.000000
     30          6           0        4.311380    6.070411    0.000000
     31          6           0        3.100735    6.769284    0.000000
     32          1           0        5.277116    4.116780    0.000000
     33          1           0        0.925989    6.628571    0.000000
     34          1           0        5.244071    6.621790    0.000000
     35          1           0        3.111773    7.852710    0.000000
     36          5           0       -2.952704   -0.000168    0.000000
     37          8           0       -3.743541    1.146045    0.000000
     38          8           0       -3.743541   -1.146391    0.000000
     39          6           0       -5.046607    0.696727    0.000000
     40          6           0       -5.046607   -0.697070    0.000000
     41          6           0       -6.217442    1.429516    0.000000
     42          6           0       -6.217442   -1.429860    0.000000
     43          6           0       -7.412805    0.698769    0.000000
     44          6           0       -7.412804   -0.699115    0.000000
     45          1           0       -6.203671    2.511865    0.000000
     46          1           0       -6.203663   -2.512209    0.000000
     47          1           0       -8.356626    1.230870    0.000000
     48          1           0       -8.356626   -1.231217    0.000000
 ---------------------------------------------------------------------

 SCF Done:  E(RB3LYP) =  -1450.23246096     a.u. after    6 cycles
 SCF Done:  E(RB3LYP) =  -1450.23248131     A.U. after   10 cycles

 The electronic state is 1-A'.
 Alpha  occ. eigenvalues --  -19.17213 -19.17213 -19.17213 -19.17211 -19.17211
 Alpha  occ. eigenvalues --  -19.17211 -10.24330 -10.24330 -10.24330 -10.24275
 Alpha  occ. eigenvalues --  -10.24275 -10.24275 -10.19621 -10.19620 -10.19620
 Alpha  occ. eigenvalues --  -10.19110 -10.19110 -10.19110 -10.19109 -10.19109
 Alpha  occ. eigenvalues --  -10.19109 -10.18711 -10.18711 -10.18711 -10.18658
 Alpha  occ. eigenvalues --  -10.18658 -10.18658 -10.17728 -10.17728 -10.17726
 Alpha  occ. eigenvalues --   -6.80144  -6.80144  -6.80143  -1.11968  -1.11966
 Alpha  occ. eigenvalues --   -1.11966  -1.04469  -1.04469  -1.04464  -0.87235
 Alpha  occ. eigenvalues --   -0.86830  -0.86830  -0.86500  -0.76935  -0.76935
 Alpha  occ. eigenvalues --   -0.76691  -0.76611  -0.76611  -0.74761  -0.74311
 Alpha  occ. eigenvalues --   -0.74311  -0.64044  -0.64044  -0.63625  -0.63170
 Alpha  occ. eigenvalues --   -0.63170  -0.62692  -0.61671  -0.61670  -0.59908
 Alpha  occ. eigenvalues --   -0.57498  -0.57498  -0.53357  -0.53202  -0.52736
 Alpha  occ. eigenvalues --   -0.52736  -0.52555  -0.52555  -0.51637  -0.47935
 Alpha  occ. eigenvalues --   -0.47847  -0.47847  -0.47642  -0.47059  -0.47059
 Alpha  occ. eigenvalues --   -0.46335  -0.45916  -0.45916  -0.45457  -0.43636
 Alpha  occ. eigenvalues --   -0.42242  -0.42242  -0.41935  -0.41264  -0.41264
 Alpha  occ. eigenvalues --   -0.39055  -0.38906  -0.38877  -0.38877  -0.38620
 Alpha  occ. eigenvalues --   -0.38620  -0.38608  -0.38008  -0.38008  -0.37919
 Alpha  occ. eigenvalues --   -0.36362  -0.36362  -0.35838  -0.35822  -0.35822
 Alpha  occ. eigenvalues --   -0.35752  -0.34197  -0.34197  -0.28414  -0.28414
 Alpha  occ. eigenvalues --   -0.26308  -0.26307  -0.26307  -0.24554  -0.23981
 Alpha  occ. eigenvalues --   -0.23981
 Alpha virt. eigenvalues --   -0.06221  -0.06221  -0.02828  -0.02184  -0.02184
 Alpha virt. eigenvalues --   -0.00944  -0.00928  -0.00928  -0.00871  -0.00496
 Alpha virt. eigenvalues --   -0.00496   0.00006   0.00478   0.00740   0.00740

 Mulliken charges:
               1
     1  C   -0.110208
     2  C   -0.448500
     3  C   -0.110312
     4  C   -0.448493
     5  C   -0.110200
     6  C   -0.448629
     7  H    0.235404
     8  H    0.235348
     9  H    0.235385
    10  B    0.684998
    11  O   -0.144626
    12  O   -0.144612
    13  C    0.179013
    14  C    0.179205
    15  C   -0.276979
    16  C   -0.276932
    17  C   -0.286310
    18  C   -0.286294
    19  H    0.178068
    20  H    0.178067
    21  H    0.169907
    22  H    0.169905
    23  B    0.684994
    24  O   -0.144633
    25  O   -0.144603
    26  C    0.179203
    27  C    0.179005
    28  C   -0.276936
    29  C   -0.276971
    30  C   -0.286285
    31  C   -0.286316
    32  H    0.178068
    33  H    0.178068
    34  H    0.169905
    35  H    0.169908
    36  B    0.685047
    37  O   -0.144611
    38  O   -0.144672
    39  C    0.179127
    40  C    0.179170
    41  C   -0.276990
    42  C   -0.276995
    43  C   -0.286315
    44  C   -0.286324
    45  H    0.178071
    46  H    0.178074
    47  H    0.169905
    48  H    0.169904
 Sum of Mulliken charges =  -0.00000

 Dipole moment (field-independent basis, Debye):
    X=             -0.0000    Y=              0.0002    Z=              0.0000  Tot=              0.0002
 Quadrupole moment (field-independent basis, Debye-Ang):
   XX=           -159.7906   YY=           -159.7907   ZZ=           -194.4263
   XY=             -0.0004   XZ=              0.0000   YZ=              0.0000

  Exact polarizability:     449.170      -0.003     449.175       0.000       0.000     163.822
 Approx polarizability:     638.867      -0.002     638.869       0.000       0.000     266.080

                      1                      2                      3
                     A"                     A"                     A"
 Frequencies --     22.4912                27.0465                27.1236
 Red. masses --      6.5073                 5.2682                 5.2685
 Frc consts  --      0.0019                 0.0023                 0.0023
 IR Inten    --      0.5087                 0.0000                 0.0000

                      4                      5                      6
                     A'                     A'                     A"
 Frequencies --     27.2702                27.2727                30.3883
 Red. masses --      6.4141                 6.4141                 5.2401
 Frc consts  --      0.0028                 0.0028                 0.0029
 IR Inten    --      0.0740                 0.0737                 0.0000

                      7                      8                      9
                     A"                     A"                     A'
 Frequencies --     60.7104                60.7535                94.4265
 Red. masses --      7.0636                 7.0639                 6.6263
 Frc consts  --      0.0153                 0.0154                 0.0348
 IR Inten    --      0.0000                 0.0000                 0.0000

                     10                     11                     12
                     A"                     A'                     A"
 Frequencies --    137.4504               175.9894               183.8951
 Red. masses --      7.6245                 8.5553                 4.8017
 Frc consts  --      0.0849                 0.1561                 0.0957
 IR Inten    --      2.0507                 0.0000                 0.0000

                     13                     14                     15
                     A"                     A'                     A'
 Frequencies --    183.9320               193.8007               193.8093
 Red. masses --      4.8030                 7.4944                 7.4947
 Frc consts  --      0.0957                 0.1658                 0.1659
 IR Inten    --      0.0000                 1.4280                 1.4270

                     16                     17                     18
                     A"                     A"                     A"
 Frequencies --    243.1904               243.6472               243.6682
 Red. masses --      6.7444                 6.7607                 6.7613
 Frc consts  --      0.2350                 0.2365                 0.2365
 IR Inten    --      0.0000                 0.0000                 0.0000

                     19                     20                     21
                     A"                     A"                     A"
 Frequencies --    311.4532               311.5045               323.6436
 Red. masses --      5.4584                 5.4591                 6.6971
 Frc consts  --      0.3120                 0.3121                 0.4133
 IR Inten    --      0.0000                 0.0000                 2.1168

                     22                     23                     24
                     A'                     A'                     A'
 Frequencies --    328.7113               328.7280               372.1066
 Red. masses --      6.6006                 6.6008                 5.0856
 Frc consts  --      0.4202                 0.4203                 0.4149
 IR Inten    --      0.0126                 0.0124                 0.0000

                     25                     26                     27
                     A"                     A"                     A"
 Frequencies --    424.6372               424.6397               431.5014
 Red. masses --      3.1080                 3.1083                 3.0969
 Frc consts  --      0.3302                 0.3302                 0.3397
 IR Inten    --      0.0000                 0.0000                16.1584

                     28                     29                     30
                     A"                     A"                     A'
 Frequencies --    491.3429               491.4171               499.4523
 Red. masses --      5.4004                 5.4026                 7.6088
 Frc consts  --      0.7681                 0.7687                 1.1183
 IR Inten    --      0.0000                 0.0000                 0.4255

                     31                     32                     33
                     A'                     A'                     A'
 Frequencies --    499.4601               549.1911               565.6087
 Red. masses --      7.6089                 6.7287                 8.0005
 Frc consts  --      1.1183                 1.1957                 1.5080
 IR Inten    --      0.4220                 0.0000                 0.3739

                     34                     35                     36
                     A'                     A'                     A"
 Frequencies --    565.6223               575.3743               581.9048
 Red. masses --      8.0005                 8.2172                 4.0346
 Frc consts  --      1.5081                 1.6028                 0.8049
 IR Inten    --      0.3735                 0.0000                 0.0000

                     37                     38                     39
                     A"                     A"                     A'
 Frequencies --    581.9599               581.9649               622.8632
 Red. masses --      4.0344                 4.0345                 7.2884
 Frc consts  --      0.8050                 0.8051                 1.6660
 IR Inten    --      0.0000                 0.0000                 0.1502

                     40                     41                     42
                     A'                     A'                     A"
 Frequencies --    622.8737               623.6955               666.1849
 Red. masses --      7.2884                 7.2054                 8.0640
 Frc consts  --      1.6660                 1.6514                 2.1086
 IR Inten    --      0.1520                 0.0000                18.1962

                     43                     44                     45
                     A'                     A'                     A"
 Frequencies --    712.2772               712.2802               723.9980
 Red. masses --      8.8597                 8.8598                 5.8801
 Frc consts  --      2.6483                 2.6484                 1.8160
 IR Inten    --     10.0291                10.0309                 0.0002

                     46                     47                     48
                     A"                     A"                     A"
 Frequencies --    724.0191               732.2706               752.3749
 Red. masses --      5.8768                 2.1871                 1.2690
 Frc consts  --      1.8151                 0.6910                 0.4233
 IR Inten    --      0.0000                24.5402               302.8571

                     49                     50                     51
                     A"                     A"                     A"
 Frequencies --    752.7299               752.7323               753.8350
 Red. masses --      1.3352                 1.3338                 4.6722
 Frc consts  --      0.4457                 0.4453                 1.5643
 IR Inten    --      0.0005                 0.0007                 0.0070

                     52                     53                     54
                     A"                     A"                     A'
 Frequencies --    753.8552               754.1289               789.4945
 Red. masses --      4.6920                 4.7255                 8.1243
 Frc consts  --      1.5710                 1.5834                 2.9836
 IR Inten    --      0.0000                 0.0000                 0.0000

                     55                     56                     57
                     A'                     A'                     A'
 Frequencies --    825.9660               825.9717               828.6850
 Red. masses --      6.7167                 6.7167                 8.1379
 Frc consts  --      2.6998                 2.6998                 3.2926
 IR Inten    --     75.7375                75.7659                 0.0001

                     58                     59                     60
                     A"                     A"                     A"
 Frequencies --    857.5898               857.5912               857.6791
 Red. masses --      1.4261                 1.4262                 1.4294
 Frc consts  --      0.6180                 0.6180                 0.6195
 IR Inten    --      0.0000                 0.0000                 0.0000

                     61                     62                     63
                     A'                     A'                     A'
 Frequencies --    874.7570               874.7747               877.0931
 Red. masses --      8.7256                 8.7184                 7.1010
 Frc consts  --      3.9339                 3.9308                 3.2186
 IR Inten    --     68.9202                68.7718                 0.0000

                     64                     65                     66
                     A'                     A'                     A"
 Frequencies --    878.7886               878.7895               932.3773
 Red. masses --      8.5843                 8.5804                 1.3749
 Frc consts  --      3.9059                 3.9042                 0.7042
 IR Inten    --     19.0394                18.9689                 0.0000

                     67                     68                     69
                     A"                     A"                     A"
 Frequencies --    932.3777               932.5026               944.4125
 Red. masses --      1.3749                 1.3750                 1.7180
 Frc consts  --      0.7042                 0.7044                 0.9028
 IR Inten    --      0.0000                13.6222                 4.4549

                     70                     71                     72
                     A"                     A"                     A"
 Frequencies --    967.5073               967.5426               967.5500
 Red. masses --      1.2518                 1.2518                 1.2518
 Frc consts  --      0.6904                 0.6904                 0.6904
 IR Inten    --      0.0000                 0.0000                 0.0000

                     73                     74                     75
                     A"                     A"                     A'
 Frequencies --    984.0233               984.1885              1010.1127
 Red. masses --      1.3898                 1.3895                 6.2629
 Frc consts  --      0.7929                 0.7930                 3.7650
 IR Inten    --      0.0000                 0.0001                 0.0000

                     76                     77                     78
                     A'                     A'                     A'
 Frequencies --   1023.2334              1023.5210              1023.5385
 Red. masses --      1.9959                 1.9696                 1.9695
 Frc consts  --      1.2312                 1.2157                 1.2157
 IR Inten    --      0.0314                19.3215                19.2892

                     79                     80                     81
                     A'                     A'                     A'
 Frequencies --   1097.7361              1097.7393              1099.1971
 Red. masses --      3.6938                 3.6929                 3.5048
 Frc consts  --      2.6225                 2.6219                 2.4950
 IR Inten    --      0.3557                 0.3560                 0.0000

                     82                     83                     84
                     A'                     A'                     A'
 Frequencies --   1106.8841              1134.1628              1134.2218
 Red. masses --      9.8540                 1.9187                 1.9183
 Frc consts  --      7.1132                 1.4541                 1.4540
 IR Inten    --      0.0000                 0.2760                 0.2628

                     85                     86                     87
                     A'                     A'                     A'
 Frequencies --   1149.1845              1153.4323              1153.4424
 Red. masses --      1.8026                 1.8739                 1.8746
 Frc consts  --      1.4026                 1.4689                 1.4694
 IR Inten    --      0.0000                40.6357                40.6453

                     88                     89                     90
                     A'                     A'                     A'
 Frequencies --   1181.5906              1181.5957              1181.7539
 Red. masses --      1.1539                 1.1539                 1.1559
 Frc consts  --      0.9492                 0.9492                 0.9511
 IR Inten    --     15.9328                15.9378                 0.0083

                     91                     92                     93
                     A'                     A'                     A'
 Frequencies --   1245.3370              1253.7190              1253.7355
 Red. masses --      7.6479                 5.6967                 5.6883
 Frc consts  --      6.9882                 5.2756                 5.2680
 IR Inten    --      0.0000               116.0978               118.0688

                     94                     95                     96
                     A'                     A'                     A'
 Frequencies --   1257.0342              1257.0559              1261.6328
 Red. masses --      5.0645                 5.0707                 4.5950
 Frc consts  --      4.7150                 4.7209                 4.3092
 IR Inten    --    532.7293               530.3900                 0.0001

                     97                     98                     99
                     A'                     A'                     A'
 Frequencies --   1299.9887              1300.1984              1300.2113
 Red. masses --      1.5149                 1.5106                 1.5106
 Frc consts  --      1.5084                 1.5046                 1.5046
 IR Inten    --      0.0016                 1.0739                 1.0540

                    100                    101                    102
                     A'                     A'                     A'
 Frequencies --   1306.3364              1325.6808              1325.6971
 Red. masses --      3.1637                 3.8606                 3.8614
 Frc consts  --      3.1809                 3.9975                 3.9984
 IR Inten    --      0.0003              1215.4447              1215.8800

                    103                    104                    105
                     A'                     A'                     A'
 Frequencies --   1355.1778              1374.9186              1388.4596
 Red. masses --      1.6418                 5.0315                 3.9442
 Frc consts  --      1.7764                 5.6041                 4.4800
 IR Inten    --      0.0004                 0.0000                60.5578

                    106                    107                    108
                     A'                     A'                     A'
 Frequencies --   1388.4679              1447.9154              1447.9687
 Red. masses --      3.9453                 4.8471                 4.8467
 Frc consts  --      4.4813                 5.9871                 5.9871
 IR Inten    --     60.5837                60.5425                60.4437

                    109                    110                    111
                     A'                     A'                     A'
 Frequencies --   1458.7190              1497.3877              1497.4313
 Red. masses --      8.2301                 2.4645                 2.4650
 Frc consts  --     10.3181                 3.2557                 3.2566
 IR Inten    --      0.0000                 1.5675                 1.7357

                    112                    113                    114
                     A'                     A'                     A'
 Frequencies --   1497.4349              1498.2909              1498.3151
 Red. masses --      2.4650                 3.0554                 3.0558
 Frc consts  --      3.2566                 4.0412                 4.0419
 IR Inten    --      1.2205               175.4141               176.0143

                    115                    116                    117
                     A'                     A'                     A'
 Frequencies --   1500.0981              1629.3298              1629.3548
 Red. masses --      3.1915                 4.8271                 4.8266
 Frc consts  --      4.2314                 7.5501                 7.5497
 IR Inten    --      0.0151                85.7986                85.7758

                    118                    119                    120
                     A'                     A'                     A'
 Frequencies --   1644.5887              1645.9009              1645.9069
 Red. masses --      7.4805                 7.2834                 7.2841
 Frc consts  --     11.9206                11.6249                11.6262
 IR Inten    --      0.0003                15.8954                15.8860

                    121                    122                    123
                     A'                     A'                     A'
 Frequencies --   1654.1705              1654.3502              1654.3539
 Red. masses --      7.3236                 7.2491                 7.2490
 Frc consts  --     11.8068                11.6893                11.6892
 IR Inten    --      0.0007                 6.8240                 6.8386

                    124                    125                    126
                     A'                     A'                     A'
 Frequencies --   3170.5126              3170.5623              3171.1584
 Red. masses --      1.0902                 1.0902                 1.0922
 Frc consts  --      6.4570                 6.4572                 6.4711
 IR Inten    --      0.9268                 0.9302                 0.0029

                    127                    128                    129
                     A'                     A'                     A'
 Frequencies --   3171.9775              3171.9859              3171.9997
 Red. masses --      1.0867                 1.0867                 1.0867
 Frc consts  --      6.4422                 6.4422                 6.4423
 IR Inten    --      1.2350                 1.7234                 1.7875

                    130                    131                    132
                     A'                     A'                     A'
 Frequencies --   3186.5412              3186.5462              3186.5639
 Red. masses --      1.0913                 1.0913                 1.0913
 Frc consts  --      6.5289                 6.5289                 6.5289
 IR Inten    --     18.4063                18.5359                 0.4860

                    133                    134                    135
                     A'                     A'                     A'
 Frequencies --   3200.6690              3200.7159              3200.7265
 Red. masses --      1.0941                 1.0941                 1.0941
 Frc consts  --      6.6038                 6.6040                 6.6041
 IR Inten    --      4.4865                 4.4112                 7.5664

                    136                    137                    138
                     A'                     A'                     A'
 Frequencies --   3204.0054              3204.0361              3204.0558
 Red. masses --      1.0963                 1.0963                 1.0963
 Frc consts  --      6.6310                 6.6311                 6.6311
 IR Inten    --      4.9196                 5.5411                 0.8295

 - Thermochemistry -
 -------------------
 Temperature   298.150 Kelvin.  Pressure   1.00000 Atm.
 Atom     1 has atomic number  6 and mass  12.00000

 Molecular mass:   432.11478 amu.
 Principal axes and moments of inertia in atomic units:
                           1         2         3
     Eigenvalues --  ******************************
           X           -0.63367   0.77360   0.00000
           Y            0.77360   0.63367   0.00000
           Z            0.00000   0.00000   1.00000
 This molecule is an asymmetric top.
 Rotational symmetry number  1.
 Warning -- assumption of classical behavior for rotation
           may cause significant error
 Rotational temperatures (Kelvin)      0.00425     0.00425     0.00213
 Rotational constants (GHZ):           0.08857     0.08857     0.04428
 Zero-point vibrational energy     920319.7 (Joules/Mol)
                                  219.96169 (Kcal/Mol)
 Warning -- explicit consideration of  38 degrees of freedom as
           vibrations may cause significant error
 Vibrational temperatures:     32.36    38.91    39.02    39.24    39.24
          (Kelvin)             43.72    87.35    87.41   135.86   197.76
                              253.21   264.58   264.64   278.84   278.85
                              349.90   350.55   350.58   448.11   448.19
                              465.65   472.94   472.97   535.38   610.96
                              610.96   620.83   706.93   707.04   718.60
                              718.61   790.16   813.78   813.80   827.84
                              837.23   837.31   837.32   896.16   896.18
                              897.36   958.49  1024.81  1024.81  1041.67
                             1041.70  1053.57  1082.50  1083.01  1083.01
                             1084.60  1084.63  1085.02  1135.91  1188.38
                             1188.39  1192.29  1233.88  1233.88  1234.01
                             1258.58  1258.61  1261.94  1264.38  1264.38
                             1341.48  1341.48  1341.66  1358.80  1392.03
                             1392.08  1392.09  1415.79  1416.03  1453.33
                             1472.20  1472.62  1472.64  1579.40  1579.40
                             1581.50  1592.56  1631.81  1631.89  1653.42
                             1659.53  1659.55  1700.05  1700.05  1700.28
                             1791.76  1803.82  1803.85  1808.59  1808.62
                             1815.21  1870.39  1870.70  1870.71  1879.53
                             1907.36  1907.38  1949.80  1978.20  1997.68
                             1997.70  2083.23  2083.30  2098.77  2154.41
                             2154.47  2154.47  2155.71  2155.74  2158.31
                             2344.24  2344.28  2366.20  2368.08  2368.09
                             2379.98  2380.24  2380.25  4561.66  4561.73
                             4562.59  4563.77  4563.78  4563.80  4584.72
                             4584.73  4584.75  4605.05  4605.12  4605.13
                             4609.85  4609.89  4609.92

 Zero-point correction=                           0.350531 (Hartree/Particle)
 Thermal correction to Energy=                    0.374878
 Thermal correction to Enthalpy=                  0.375822
 Thermal correction to Gibbs Free Energy=         0.292244
 Sum of electronic and zero-point Energies=          -1449.881950
 Sum of electronic and thermal Energies=             -1449.857604
 Sum of electronic and thermal Enthalpies=           -1449.856660
 Sum of electronic and thermal Free Energies=        -1449.940238

                     E (Thermal)             CV                S
                      KCal/Mol        Cal/Mol-Kelvin    Cal/Mol-Kelvin
 Total                  235.239             97.616            175.905
 Electronic               0.000              0.000              0.000
 Translational            0.889              2.981             44.080
 Rotational               0.889              2.981             38.068
 Vibrational            233.462             91.654             93.757
 Vibration     1          0.593              1.985              6.401
 Vibration     2          0.593              1.984              6.035
 Vibration     3          0.593              1.984              6.029
 Vibration     4          0.593              1.984              6.019
 Vibration     5          0.593              1.984              6.019
 Vibration     6          0.594              1.984              5.804
 Vibration     7          0.597              1.973              4.434
 Vibration     8          0.597              1.973              4.433
 Vibration     9          0.603              1.953              3.566
 Vibration    10          0.614              1.916              2.839
 Vibration    11          0.628              1.872              2.371
 Vibration    12          0.631              1.862              2.289
 Vibration    13          0.631              1.862              2.288
 Vibration    14          0.635              1.848              2.191
 Vibration    15          0.635              1.848              2.191
 Vibration    16          0.659              1.774              1.779
 Vibration    17          0.659              1.773              1.776
 Vibration    18          0.659              1.773              1.776
 Vibration    19          0.700              1.652              1.355
 Vibration    20          0.700              1.652              1.354
 Vibration    21          0.708              1.628              1.292
 Vibration    22          0.712              1.618              1.266
 Vibration    23          0.712              1.618              1.266
 Vibration    24          0.744              1.529              1.071
 Vibration    25          0.787              1.417              0.876
 Vibration    26          0.787              1.417              0.876
 Vibration    27          0.793              1.402              0.854
 Vibration    28          0.847              1.269              0.680
 Vibration    29          0.847              1.269              0.680
 Vibration    30          0.855              1.251              0.659
 Vibration    31          0.855              1.251              0.659
 Vibration    32          0.904              1.141              0.546
 Vibration    33          0.921              1.106              0.513
 Vibration    34          0.921              1.106              0.513
 Vibration    35          0.932              1.085              0.494
 Vibration    36          0.939              1.070              0.482
 Vibration    37          0.939              1.070              0.482
 Vibration    38          0.939              1.070              0.482

 Optimization completed.
    -- Stationary point found.
 Normal termination of Gaussian 16 at Sun Aug  2 09:12:51 2020.
