 Gaussian 16, Revision C.01,
 Gaussian 16:  ES64L-G16RevC.01  3-Jul-2019

 --------------------------------------------------------------------
 #P B3LYP/6-311++G(d,p) EmpiricalDispersion=GD3 freq(noraman) SCF=YQC
 --------------------------------------------------------------------

 -----------------------------
 Restart from Borosilicate.log
 -----------------------------
 Symbolic Z-matrix:
 Charge =  0 Multiplicity = 1

                         Standard orientation:
 ---------------------------------------------------------------------
 Center     Atomic      Atomic             Coordinates (Angstroms)
 Number     Number       Type             X           Y           Z
 ---------------------------------------------------------------------
      1         14           0       -0.000935   -0.000415   -1.740568
      2          8           0       -1.546052   -0.199789   -1.199003
      3          1           0       -0.000945   -0.000325   -3.198469
      4          8           0        0.944376   -1.238632   -1.198834
      5          8           0        0.599117    1.437262   -1.198826
      6          5           0        1.356851   -1.774934    0.000017
      7          8           0        0.947016   -1.236638    1.198873
      8          5           0       -2.216744   -0.288141   -0.000064
      9          8           0       -1.545552   -0.203028    1.198818
     10          5           0        0.857765    2.062409    0.000057
     11          8           0        0.596138    1.438567    1.198996
     12         14           0       -0.000930   -0.000409    1.740575
     13          1           0       -0.001083   -0.000418    3.198475
     14          6           0       -3.758350   -0.487673   -0.000019
     15          6           0       -4.473052   -0.578579   -1.205676
     16          6           0       -5.853766   -0.757550   -1.208747
     17          1           0       -3.933832   -0.507356   -2.143765
     18          6           0       -4.472551   -0.581930    1.205677
     19          6           0       -6.545054   -0.848904    0.000057
     20          1           0       -6.392151   -0.826005   -2.147644
     21          6           0       -5.853264   -0.760916    1.208822
     22          1           0       -3.932942   -0.513326    2.143737
     23          1           0       -7.620731   -0.988378    0.000086
     24          1           0       -6.391258   -0.831990    2.147749
     25          6           0        2.301732   -3.009244    0.000000
     26          6           0        2.738494   -3.582187   -1.205677
     27          6           0        2.741132   -3.580197    1.205663
     28          6           0        3.585160   -4.687430   -1.208797
     29          1           0        2.406722   -3.151175   -2.143760
     30          6           0        4.010584   -5.239983   -0.000029
     31          1           0        3.914141   -5.119020   -2.147720
     32          6           0        3.587819   -4.685424    1.208754
     33          1           0        2.411418   -3.147633    2.143758
     34          1           0        4.670232   -6.101027   -0.000039
     35          1           0        3.918871   -5.115452    2.147666
     36          6           0        1.456030    3.497153    0.000026
     37          6           0        1.735059    4.161318   -1.205670
     38          6           0        2.271505    5.446089   -1.208815
     39          1           0        1.526697    3.658859   -2.143733
     40          6           0        1.732090    4.162628    1.205683
     41          6           0        2.268523    5.447404    1.208751
     42          1           0        1.521408    3.661192    2.143775
     43          6           0        2.538728    6.090220   -0.000050
     44          1           0        2.481792    5.946357   -2.147742
     45          1           0        2.956660    7.091154   -0.000079
     46          1           0        2.476493    5.948696    2.147649
 ---------------------------------------------------------------------

 SCF Done:  E(RB3LYP) =  -1802.11628274     a.u. after    6 cycles
 SCF Done:  E(RB3LYP) =  -1802.11629158     A.U. after    9 cycles

 The electronic state is 1-A.
 Alpha  occ. eigenvalues --  -66.18216 -66.18216 -19.14156 -19.14155 -19.14155
 Alpha  occ. eigenvalues --  -19.14154 -19.14154 -19.14154 -10.18389 -10.18389
 Alpha  occ. eigenvalues --  -10.18388 -10.18003 -10.18003 -10.18003 -10.18002
 Alpha  occ. eigenvalues --  -10.18002 -10.18002 -10.17892 -10.17892 -10.17892
 Alpha  occ. eigenvalues --  -10.17890 -10.17889 -10.17889 -10.16338 -10.16337
 Alpha  occ. eigenvalues --  -10.16337  -6.81106  -6.81105  -6.81104  -5.34712
 Alpha  occ. eigenvalues --   -5.34711  -3.70694  -3.70693  -3.70693  -3.70693
 Alpha  occ. eigenvalues --   -3.70369  -3.70369  -1.06465  -1.03457  -1.03455
 Alpha  occ. eigenvalues --   -1.03023  -1.00081  -1.00079  -0.85929  -0.85911
 Alpha  occ. eigenvalues --   -0.85910  -0.75318  -0.75181  -0.75173  -0.75173
 Alpha  occ. eigenvalues --   -0.75168  -0.75167  -0.65023  -0.62456  -0.61591
 Alpha  occ. eigenvalues --   -0.61591  -0.60987  -0.60986  -0.59931  -0.59778
 Alpha  occ. eigenvalues --   -0.56883  -0.56882  -0.53443  -0.53442  -0.52921
 Alpha  occ. eigenvalues --   -0.52352  -0.52351  -0.48165  -0.46089  -0.46089
 Alpha  occ. eigenvalues --   -0.45946  -0.45486  -0.45092  -0.45091  -0.44875
 Alpha  occ. eigenvalues --   -0.44874  -0.43245  -0.43244  -0.43005  -0.42706
 Alpha  occ. eigenvalues --   -0.42706  -0.42072  -0.40916  -0.40111  -0.39434
 Alpha  occ. eigenvalues --   -0.38277  -0.38276  -0.37773  -0.37773  -0.37087
 Alpha  occ. eigenvalues --   -0.37087  -0.36771  -0.35490  -0.34805  -0.34804
 Alpha  occ. eigenvalues --   -0.34377  -0.33881  -0.33880  -0.33725  -0.33378
 Alpha  occ. eigenvalues --   -0.32621  -0.32621  -0.26414  -0.26413  -0.26157
 Alpha  occ. eigenvalues --   -0.26088  -0.26088  -0.26079
 Alpha virt. eigenvalues --   -0.05245  -0.05245  -0.04215  -0.01755  -0.01755
 Alpha virt. eigenvalues --   -0.01700  -0.01068  -0.00491  -0.00490   0.00464
 Alpha virt. eigenvalues --    0.00757   0.01212   0.01213   0.01344   0.01346

 Mulliken charges:
               1
     1  Si   0.163301
     2  O   -0.351199
     3  H   -0.319207
     4  O   -0.351676
     5  O   -0.351056
     6  B    0.849143
     7  O   -0.351660
     8  B    0.849143
     9  O   -0.351371
    10  B    0.847807
    11  O   -0.350899
    12  Si   0.163289
    13  H   -0.319204
    14  C   -0.181052
    15  C   -0.043376
    16  C   -0.155934
    17  H    0.160782
    18  C   -0.043380
    19  C   -0.288999
    20  H    0.179229
    21  C   -0.155902
    22  H    0.160784
    23  H    0.146303
    24  H    0.179228
    25  C   -0.180136
    26  C   -0.043614
    27  C   -0.043641
    28  C   -0.155933
    29  H    0.160726
    30  C   -0.289013
    31  H    0.179231
    32  C   -0.155946
    33  H    0.160726
    34  H    0.146303
    35  H    0.179231
    36  C   -0.180199
    37  C   -0.043533
    38  C   -0.155945
    39  H    0.160731
    40  C   -0.043511
    41  C   -0.155967
    42  H    0.160731
    43  C   -0.289103
    44  H    0.179231
    45  H    0.146306
    46  H    0.179232
 Sum of Mulliken charges =   0.00000

 Dipole moment (field-independent basis, Debye):
    X=              0.0004    Y=             -0.0005    Z=             -0.0000  Tot=              0.0006
 Quadrupole moment (field-independent basis, Debye-Ang):
   XX=           -172.8312   YY=           -172.8728   ZZ=           -167.7352
   XY=              0.0019   XZ=             -0.0005   YZ=             -0.0006

  Exact polarizability:     307.785       0.013     307.539       0.000      -0.001     290.156
 Approx polarizability:     409.593       0.023     409.279       0.002      -0.003     498.159

                      1                      2                      3
                      A                      A                      A
 Frequencies --     14.9977                15.0666                31.0842
 Red. masses --      6.4007                 6.4027                 3.9663
 Frc consts  --      0.0008                 0.0009                 0.0023
 IR Inten    --      0.0614                 0.0610                 0.0000

                      4                      5                      6
                      A                      A                      A
 Frequencies --     41.6140                41.8505                53.2881
 Red. masses --      3.7429                 3.7485                 8.2555
 Frc consts  --      0.0038                 0.0039                 0.0138
 IR Inten    --      0.0000                 0.0000                 0.0001

                      7                      8                      9
                      A                      A                      A
 Frequencies --     59.5996                66.0423                67.7504
 Red. masses --      5.5372                 6.5331                 6.5183
 Frc consts  --      0.0116                 0.0168                 0.0176
 IR Inten    --      0.2458                 0.0000                 0.0000

                     10                     11                     12
                      A                      A                      A
 Frequencies --     97.7663               129.7389               129.8071
 Red. masses --     11.9118                 5.1638                 5.1622
 Frc consts  --      0.0671                 0.0512                 0.0512
 IR Inten    --      0.0000                 2.3778                 2.3872

                     13                     14                     15
                      A                      A                      A
 Frequencies --    144.4280               144.6320               164.1342
 Red. masses --     11.5763                11.6519                 6.0260
 Frc consts  --      0.1423                 0.1436                 0.0956
 IR Inten    --      0.0000                 0.0000                 0.0000

                     16                     17                     18
                      A                      A                      A
 Frequencies --    174.9762               241.6959               241.7839
 Red. masses --      7.1455                 8.7728                 8.7759
 Frc consts  --      0.1289                 0.3019                 0.3023
 IR Inten    --      0.0000                 3.7971                 3.8051

                     19                     20                     21
                      A                      A                      A
 Frequencies --    306.4744               306.7650               312.6121
 Red. masses --      8.7861                 8.7944                 5.7670
 Frc consts  --      0.4862                 0.4876                 0.3321
 IR Inten    --      0.0004                 0.0004                 0.0305

                     22                     23                     24
                      A                      A                      A
 Frequencies --    356.3412               356.4203               375.6112
 Red. masses --      8.1525                 8.1539                 7.2117
 Frc consts  --      0.6099                 0.6103                 0.5995
 IR Inten    --     24.5000                24.5524                 0.0009

                     25                     26                     27
                      A                      A                      A
 Frequencies --    375.6587               396.1916               412.1747
 Red. masses --      7.2125                12.4419                 2.8466
 Frc consts  --      0.5997                 1.1507                 0.2849
 IR Inten    --      0.0013                 0.0001                 0.0000

                     28                     29                     30
                      A                      A                      A
 Frequencies --    412.2999               412.3470               431.6351
 Red. masses --      2.8478                 2.8524                 3.8075
 Frc consts  --      0.2852                 0.2857                 0.4180
 IR Inten    --      0.0000                 0.0000                 0.0003

                     31                     32                     33
                      A                      A                      A
 Frequencies --    443.8921               443.9361               456.4276
 Red. masses --      3.9498                 3.9497                15.0647
 Frc consts  --      0.4585                 0.4586                 1.8491
 IR Inten    --      4.2137                 4.2083               131.5507

                     34                     35                     36
                      A                      A                      A
 Frequencies --    575.8891               576.1868               601.7689
 Red. masses --      7.9079                 7.9021                14.2067
 Frc consts  --      1.5452                 1.5457                 3.0311
 IR Inten    --    105.0682               105.1543                 0.0007

                     37                     38                     39
                      A                      A                      A
 Frequencies --    633.5238               633.5321               633.5785
 Red. masses --      6.4526                 6.4525                 6.4573
 Frc consts  --      1.5259                 1.5259                 1.5272
 IR Inten    --      0.0124                 0.0013                 1.2039

                     40                     41                     42
                      A                      A                      A
 Frequencies --    660.2796               661.5066               664.2262
 Red. masses --      5.0479                 7.8657                 5.7324
 Frc consts  --      1.2966                 2.0279                 1.4901
 IR Inten    --      0.0066                 0.0020                10.0686

                     43                     44                     45
                      A                      A                      A
 Frequencies --    664.2671               678.6697               678.8101
 Red. masses --      5.7301                 5.1948                 5.1943
 Frc consts  --      1.4897                 1.4097                 1.4102
 IR Inten    --      9.9111                56.0344                56.0617

                     46                     47                     48
                      A                      A                      A
 Frequencies --    709.2525               710.8308               710.8771
 Red. masses --      1.6324                 1.5561                 1.5569
 Frc consts  --      0.4838                 0.4633                 0.4636
 IR Inten    --      0.0591               104.8301               104.8111

                     49                     50                     51
                      A                      A                      A
 Frequencies --    781.1784               784.4178               784.4461
 Red. masses --      2.2234                 2.3788                 2.3810
 Frc consts  --      0.7994                 0.8624                 0.8633
 IR Inten    --      0.0003                 4.4045                 4.3148

                     52                     53                     54
                      A                      A                      A
 Frequencies --    801.8676               835.0677               835.1221
 Red. masses --     13.0071                 1.1342                 1.1344
 Frc consts  --      4.9276                 0.4660                 0.4662
 IR Inten    --     16.7973                 0.0000                 0.0000

                     55                     56                     57
                      A                      A                      A
 Frequencies --    866.7314               866.7791               869.2308
 Red. masses --      1.3754                 1.3754                 1.2466
 Frc consts  --      0.6087                 0.6088                 0.5549
 IR Inten    --    301.8873               302.1504                 0.0000

                     58                     59                     60
                      A                      A                      A
 Frequencies --    869.3775               869.4333               875.1649
 Red. masses --      1.2552                 1.2552                12.5909
 Frc consts  --      0.5590                 0.5590                 5.6818
 IR Inten    --      0.0001                 0.0001                 0.0004

                     61                     62                     63
                      A                      A                      A
 Frequencies --    875.2992               876.7103               913.2888
 Red. masses --     12.6817                 8.1621                 4.4911
 Frc consts  --      5.7245                 3.6963                 2.2071
 IR Inten    --      0.0001                 0.0007               331.2462

                     64                     65                     66
                      A                      A                      A
 Frequencies --    913.3765               951.2138               951.2907
 Red. masses --      4.4898                 1.3743                 1.3750
 Frc consts  --      2.2069                 0.7326                 0.7331
 IR Inten    --    331.2845                 0.1622                 2.9656

                     67                     68                     69
                      A                      A                      A
 Frequencies --    951.3344               998.7008               998.7767
 Red. masses --      1.3748                 1.3829                 1.3829
 Frc consts  --      0.7331                 0.8127                 0.8128
 IR Inten    --      2.8294                 0.0000                 0.0000

                     70                     71                     72
                      A                      A                      A
 Frequencies --    998.7912              1008.9294              1008.9427
 Red. masses --      1.3828                 1.2910                 1.2910
 Frc consts  --      0.8128                 0.7743                 0.7743
 IR Inten    --      0.0000                 0.0155                 0.0149

                     73                     74                     75
                      A                      A                      A
 Frequencies --   1009.0752              1015.2547              1015.2629
 Red. masses --      1.2916                 6.2768                 6.2770
 Frc consts  --      0.7748                 3.8119                 3.8120
 IR Inten    --      0.0001                 0.8879                 0.8903

                     76                     77                     78
                      A                      A                      A
 Frequencies --   1015.3739              1049.7980              1049.8212
 Red. masses --      6.2711                 2.3272                 2.3268
 Frc consts  --      3.8093                 1.5111                 1.5109
 IR Inten    --      0.0021                49.9477                50.1450

                     79                     80                     81
                      A                      A                      A
 Frequencies --   1049.9458              1100.6168              1100.6305
 Red. masses --      2.3584                 1.6669                 1.6669
 Frc consts  --      1.5318                 1.1897                 1.1897
 IR Inten    --      0.6417                 0.0016                 0.0059

                     82                     83                     84
                      A                      A                      A
 Frequencies --   1101.2822              1150.0546              1152.6959
 Red. masses --      1.6507                 4.8293                 5.1620
 Frc consts  --      1.1796                 3.7633                 4.0411
 IR Inten    --     32.7561                 0.0722               566.5397

                     85                     86                     87
                      A                      A                      A
 Frequencies --   1152.7339              1191.2474              1191.2587
 Red. masses --      5.1624                 1.1295                 1.1295
 Frc consts  --      4.0416                 0.9444                 0.9444
 IR Inten    --    566.9610                 0.2811                 0.4679

                     88                     89                     90
                      A                      A                      A
 Frequencies --   1191.2726              1211.0438              1211.0807
 Red. masses --      1.1296                 1.1393                 1.1394
 Frc consts  --      0.9445                 0.9845                 0.9846
 IR Inten    --      0.7985                18.1092                17.8530

                     91                     92                     93
                      A                      A                      A
 Frequencies --   1211.8862              1254.6255              1254.6818
 Red. masses --      1.1405                 7.4863                 7.4869
 Frc consts  --      0.9869                 6.9430                 6.9442
 IR Inten    --      0.0098                 0.0012                 0.0015

                     94                     95                     96
                      A                      A                      A
 Frequencies --   1317.5268              1317.5987              1319.5907
 Red. masses --      6.1046                 6.1029                 3.6184
 Frc consts  --      6.2435                 6.2424                 3.7123
 IR Inten    --   1719.9260              1717.8521                19.9219

                     97                     98                     99
                      A                      A                      A
 Frequencies --   1322.8095              1322.8292              1347.3268
 Red. masses --      3.5342                 3.5413                 6.3236
 Frc consts  --      3.6436                 3.6511                 6.7633
 IR Inten    --      0.0007                 0.0005                 0.0089

                    100                    101                    102
                      A                      A                      A
 Frequencies --   1352.6190              1352.7237              1352.7429
 Red. masses --      1.6109                 1.6358                 1.6351
 Frc consts  --      1.7365                 1.7636                 1.7629
 IR Inten    --     22.8467                 0.5735                 0.0009

                    103                    104                    105
                      A                      A                      A
 Frequencies --   1399.9041              1466.4507              1466.4621
 Red. masses --      9.3997                 2.1096                 2.1096
 Frc consts  --     10.8533                 2.6729                 2.6730
 IR Inten    --    990.8156                 0.0014                 0.0005

                    106                    107                    108
                      A                      A                      A
 Frequencies --   1468.5679              1523.2890              1523.3147
 Red. masses --      2.1886                 2.2149                 2.2151
 Frc consts  --      2.7810                 3.0281                 3.0285
 IR Inten    --    143.3157                15.5241                15.5603

                    109                    110                    111
                      A                      A                      A
 Frequencies --   1523.9161              1610.3285              1610.3547
 Red. masses --      2.2421                 5.0503                 5.0507
 Frc consts  --      3.0678                 7.7161                 7.7170
 IR Inten    --      0.0128                 0.0005                 0.0026

                    112                    113                    114
                      A                      A                      A
 Frequencies --   1611.1728              1640.5585              1640.5620
 Red. masses --      5.0612                 5.3599                 5.3598
 Frc consts  --      7.7408                 8.4995                 8.4993
 IR Inten    --      5.9100                62.9472                62.9733

                    115                    116                    117
                      A                      A                      A
 Frequencies --   1640.9292              2378.0103              2379.4194
 Red. masses --      5.3843                 1.0420                 1.0426
 Frc consts  --      8.5420                 3.4716                 3.4777
 IR Inten    --      0.0023               151.8585                 0.0005

                    118                    119                    120
                      A                      A                      A
 Frequencies --   3155.0600              3155.0764              3155.0907
 Red. masses --      1.0853                 1.0853                 1.0853
 Frc consts  --      6.3653                 6.3654                 6.3655
 IR Inten    --      0.1836                 0.1671                 0.0747

                    121                    122                    123
                      A                      A                      A
 Frequencies --   3163.9691              3164.0173              3164.0429
 Red. masses --      1.0875                 1.0875                 1.0875
 Frc consts  --      6.4140                 6.4142                 6.4144
 IR Inten    --      1.0216                 0.6890                 3.8873

                    124                    125                    126
                      A                      A                      A
 Frequencies --   3173.1530              3173.1747              3173.2083
 Red. masses --      1.0913                 1.0913                 1.0913
 Frc consts  --      6.4738                 6.4739                 6.4740
 IR Inten    --     17.8509                15.6979                 5.2552

                    127                    128                    129
                      A                      A                      A
 Frequencies --   3180.4248              3180.4717              3180.5465
 Red. masses --      1.0940                 1.0940                 1.0940
 Frc consts  --      6.5199                 6.5200                 6.5204
 IR Inten    --      4.7949                 2.9503                76.4880

                    130                    131                    132
                      A                      A                      A
 Frequencies --   3186.8612              3186.8892              3186.9731
 Red. masses --      1.0980                 1.0980                 1.0980
 Frc consts  --      6.5703                 6.5704                 6.5708
 IR Inten    --     21.6333                21.6575                 0.8228

 - Thermochemistry -
 -------------------
 Temperature   298.150 Kelvin.  Pressure   1.00000 Atm.
 Atom     1 has atomic number 14 and mass  27.97693

 Molecular mass:   418.08429 amu.
 Principal axes and moments of inertia in atomic units:
                           1         2         3
     Eigenvalues --  ******************************
           X            1.00000   0.00129  -0.00000
           Y           -0.00129   1.00000  -0.00000
           Z            0.00000   0.00000   1.00000
 This molecule is an asymmetric top.
 Rotational symmetry number  1.
 Warning -- assumption of classical behavior for rotation
           may cause significant error
 Rotational temperatures (Kelvin)      0.00594     0.00594     0.00348
 Rotational constants (GHZ):           0.12385     0.12371     0.07242
 Zero-point vibrational energy     879765.6 (Joules/Mol)
                                  210.26902 (Kcal/Mol)
 Warning -- explicit consideration of  36 degrees of freedom as
           vibrations may cause significant error
 Vibrational temperatures:     21.58    21.68    44.72    59.87    60.21
          (Kelvin)             76.67    85.75    95.02    97.48   140.66
                              186.67   186.76   207.80   208.09   236.15
                              251.75   347.75   347.87   440.95   441.37
                              449.78   512.70   512.81   540.42   540.49
                              570.03   593.03   593.21   593.28   621.03
                              638.66   638.73   656.70   828.58   829.00
                              865.81   911.50   911.51   911.58   950.00
                              951.76   955.67   955.73   976.45   976.66
                             1020.46  1022.73  1022.79  1123.94  1128.60
                             1128.64  1153.71  1201.48  1201.55  1247.03
                             1247.10  1250.63  1250.84  1250.92  1259.17
                             1259.36  1261.39  1314.02  1314.15  1368.58
                             1368.70  1368.76  1436.91  1437.02  1437.04
                             1451.62  1451.64  1451.83  1460.73  1460.74
                             1460.90  1510.43  1510.46  1510.64  1583.54
                             1583.56  1584.50  1654.67  1658.47  1658.53
                             1713.94  1713.96  1713.98  1742.42  1742.48
                             1743.63  1805.13  1805.21  1895.63  1895.73
                             1898.60  1903.23  1903.26  1938.50  1946.12
                             1946.27  1946.30  2014.15  2109.90  2109.91
                             2112.94  2191.67  2191.71  2192.58  2316.90
                             2316.94  2318.12  2360.40  2360.40  2360.93
                             3421.43  3423.45  4539.43  4539.45  4539.47
                             4552.25  4552.32  4552.35  4565.46  4565.49
                             4565.54  4575.92  4575.99  4576.10  4585.18
                             4585.22  4585.34

 Zero-point correction=                           0.335085 (Hartree/Particle)
 Thermal correction to Energy=                    0.360086
 Thermal correction to Enthalpy=                  0.361030
 Thermal correction to Gibbs Free Energy=         0.276170
 Sum of electronic and zero-point Energies=          -1801.781207
 Sum of electronic and thermal Energies=             -1801.756205
 Sum of electronic and thermal Enthalpies=           -1801.755261
 Sum of electronic and thermal Free Energies=        -1801.840122

                     E (Thermal)             CV                S
                      KCal/Mol        Cal/Mol-Kelvin    Cal/Mol-Kelvin
 Total                  225.958             96.935            178.604
 Electronic               0.000              0.000              0.000
 Translational            0.889              2.981             43.982
 Rotational               0.889              2.981             36.914
 Vibrational            224.180             90.974             97.708
 Vibration     1          0.593              1.986              7.206
 Vibration     2          0.593              1.986              7.197
 Vibration     3          0.594              1.983              5.759
 Vibration     4          0.594              1.981              5.181
 Vibration     5          0.594              1.980              5.170
 Vibration     6          0.596              1.976              4.691
 Vibration     7          0.597              1.974              4.470
 Vibration     8          0.597              1.970              4.268
 Vibration     9          0.598              1.970              4.218
 Vibration    10          0.603              1.951              3.498
 Vibration    11          0.612              1.924              2.950
 Vibration    12          0.612              1.923              2.949
 Vibration    13          0.616              1.909              2.744
 Vibration    14          0.616              1.908              2.742
 Vibration    15          0.623              1.886              2.502
 Vibration    16          0.627              1.873              2.381
 Vibration    17          0.658              1.776              1.790
 Vibration    18          0.658              1.776              1.790
 Vibration    19          0.697              1.661              1.381
 Vibration    20          0.697              1.661              1.380
 Vibration    21          0.701              1.650              1.348
 Vibration    22          0.732              1.562              1.138
 Vibration    23          0.732              1.562              1.138
 Vibration    24          0.746              1.522              1.057
 Vibration    25          0.746              1.522              1.057
 Vibration    26          0.763              1.478              0.977
 Vibration    27          0.776              1.444              0.919
 Vibration    28          0.776              1.444              0.919
 Vibration    29          0.776              1.443              0.918
 Vibration    30          0.793              1.401              0.853
 Vibration    31          0.803              1.374              0.814
 Vibration    32          0.803              1.374              0.814
 Vibration    33          0.815              1.347              0.777
 Vibration    34          0.932              1.083              0.493
 Vibration    35          0.933              1.083              0.492
 Vibration    36          0.960              1.028              0.447

 Normal termination of Gaussian 16 at Sun Aug  2 08:59:44 2020.
