 Gaussian 16, Revision C.01,
 Gaussian 16:  ES64L-G16RevC.01  3-Jul-2019

 --------------------------------------------------------------------
 #P B3LYP/6-311++G(d,p) EmpiricalDispersion=GD3 freq(noraman) SCF=YQC
 --------------------------------------------------------------------

 ----------------------------------------------
 Restart from BiPhenyl_BoronicAcid_Boroxine.log
 ----------------------------------------------
 Symbolic Z-matrix:
 Charge =  0 Multiplicity = 1

                         Standard orientation:
 ---------------------------------------------------------------------
 Center     Atomic      Atomic             Coordinates (Angstroms)
 Number     Number       Type             X           Y           Z
 ---------------------------------------------------------------------
      1          6           0        0.000001   -3.572579   -0.000057
      2          6           0        0.414424   -2.848948   -1.130533
      3          6           0        0.413805   -1.460017   -1.132909
      4          6           0        0.000001   -0.740939   -0.000054
      5          6           0       -0.413805   -1.460020    1.132800
      6          6           0       -0.414417   -2.848952    1.130423
      7          6           0       -0.000001    0.740939   -0.000054
      8          6           0        0.413805    1.460020    1.132800
      9          6           0        0.414417    2.848952    1.130423
     10          6           0       -0.000001    3.572579   -0.000057
     11          6           0       -0.414424    2.848948   -1.130533
     12          6           0       -0.413805    1.460017   -1.132909
     13          1           0        0.746674    3.388142    2.010652
     14          1           0       -0.746674   -3.388142    2.010652
     15          1           0       -0.746669    3.388138   -2.010768
     16          1           0        0.746669   -3.388138   -2.010768
     17          1           0        0.760596    0.923139    2.008323
     18          1           0       -0.760596   -0.923139    2.008323
     19          1           0        0.760589   -0.923134   -2.008433
     20          1           0       -0.760589    0.923134   -2.008433
     21          5           0       -0.000022   -5.116062   -0.000066
     22          8           0        0.414450   -5.827898   -1.117032
     23          5           0        0.416714   -7.201076   -1.121995
     24          8           0       -0.414125   -5.827900    1.117034
     25          5           0       -0.415986   -7.201079    1.122144
     26          8           0        0.000631   -7.885514    0.000173
     27          1           0        0.773968   -7.795485   -2.083648
     28          1           0       -0.772598   -7.795488    2.084034
     29          5           0        0.000022    5.116062   -0.000066
     30          8           0       -0.414450    5.827898   -1.117032
     31          5           0       -0.416714    7.201076   -1.121995
     32          8           0        0.414125    5.827900    1.117034
     33          5           0        0.415986    7.201079    1.122144
     34          8           0       -0.000631    7.885514    0.000173
     35          1           0       -0.773968    7.795485   -2.083648
     36          1           0        0.772598    7.795488    2.084034
 ---------------------------------------------------------------------

 SCF Done:  E(RB3LYP) =  -1065.90022801     a.u. after    7 cycles
 SCF Done:  E(RB3LYP) =  -1065.90023250     A.U. after    8 cycles

 The electronic state is 1-A.
 Alpha  occ. eigenvalues --  -19.15731 -19.15731 -19.15699 -19.15699 -19.15698
 Alpha  occ. eigenvalues --  -19.15698 -10.20585 -10.20554 -10.19079 -10.19079
 Alpha  occ. eigenvalues --  -10.19079 -10.19079 -10.18877 -10.18877 -10.18877
 Alpha  occ. eigenvalues --  -10.18876 -10.17360 -10.17360  -6.81603  -6.81603
 Alpha  occ. eigenvalues --   -6.81603  -6.81603  -6.81516  -6.81515  -1.09036
 Alpha  occ. eigenvalues --   -1.09036  -1.03103  -1.03103  -1.03096  -1.03095
 Alpha  occ. eigenvalues --   -0.88669  -0.86258  -0.79413  -0.76707  -0.75948
 Alpha  occ. eigenvalues --   -0.73900  -0.65119  -0.63713  -0.61672  -0.61336
 Alpha  occ. eigenvalues --   -0.60491  -0.59912  -0.59405  -0.58351  -0.55142
 Alpha  occ. eigenvalues --   -0.54908  -0.54431  -0.51690  -0.50290  -0.48030
 Alpha  occ. eigenvalues --   -0.47890  -0.47757  -0.46655  -0.46650  -0.45410
 Alpha  occ. eigenvalues --   -0.45371  -0.44048  -0.43321  -0.41973  -0.40926
 Alpha  occ. eigenvalues --   -0.40918  -0.40767  -0.40766  -0.39782  -0.39158
 Alpha  occ. eigenvalues --   -0.38611  -0.38611  -0.38283  -0.37676  -0.37071
 Alpha  occ. eigenvalues --   -0.36485  -0.36040  -0.35185  -0.34050  -0.33971
 Alpha  occ. eigenvalues --   -0.33854  -0.33678  -0.29520  -0.27173  -0.27158
 Alpha  occ. eigenvalues --   -0.25027
 Alpha virt. eigenvalues --   -0.08095  -0.04606  -0.03261  -0.03158  -0.02612
 Alpha virt. eigenvalues --   -0.02441  -0.01188  -0.00419  -0.00203   0.00257
 Alpha virt. eigenvalues --    0.00505   0.00684   0.01235   0.01866   0.01997

 Mulliken charges:
               1
     1  C   -0.421353
     2  C   -0.424742
     3  C   -0.306455
     4  C    0.852161
     5  C   -0.306469
     6  C   -0.424672
     7  C    0.852161
     8  C   -0.306469
     9  C   -0.424672
    10  C   -0.421353
    11  C   -0.424742
    12  C   -0.306455
    13  H    0.213420
    14  H    0.213420
    15  H    0.213418
    16  H    0.213418
    17  H    0.166417
    18  H    0.166417
    19  H    0.166412
    20  H    0.166412
    21  B    0.774579
    22  O   -0.441694
    23  B    0.370812
    24  O   -0.441687
    25  B    0.370814
    26  O   -0.315647
    27  H   -0.022658
    28  H   -0.022653
    29  B    0.774579
    30  O   -0.441694
    31  B    0.370812
    32  O   -0.441687
    33  B    0.370814
    34  O   -0.315647
    35  H   -0.022658
    36  H   -0.022653
 Sum of Mulliken charges =  -0.00000

 Dipole moment (field-independent basis, Debye):
    X=             -0.0000    Y=             -0.0000    Z=             -0.0007  Tot=              0.0007
 Quadrupole moment (field-independent basis, Debye-Ang):
   XX=           -136.4587   YY=           -157.7710   ZZ=           -133.6027
   XY=              0.0151   XZ=              0.0000   YZ=              0.0000

  Exact polarizability:     133.859      -0.011     412.983      -0.000      -0.000     207.668
 Approx polarizability:     216.507      -0.007     485.403      -0.000      -0.000     348.819

                      1                      2                      3
                      B                      A                      A
 Frequencies --     19.7601                32.3218                35.1004
 Red. masses --      7.7389                 7.4098                 5.0747
 Frc consts  --      0.0018                 0.0046                 0.0037
 IR Inten    --      0.0291                 0.0422                 0.0000

                      4                      5                      6
                      A                      B                      B
 Frequencies --     57.1900                61.9886                76.8779
 Red. masses --      8.2909                 4.1681                 9.3479
 Frc consts  --      0.0160                 0.0094                 0.0326
 IR Inten    --      0.0113                 0.0000                 0.0062

                      7                      8                      9
                      A                      B                      A
 Frequencies --     89.0098                96.8697               116.3957
 Red. masses --      3.7940                 7.2118                 8.5291
 Frc consts  --      0.0177                 0.0399                 0.0681
 IR Inten    --      0.0000                 0.0051                 0.0007

                     10                     11                     12
                      A                      A                      B
 Frequencies --    151.2440               169.7111               192.1179
 Red. masses --      9.9691                 6.1806                 6.9430
 Frc consts  --      0.1344                 0.1049                 0.1510
 IR Inten    --      0.0000                 0.0994                 0.0000

                     13                     14                     15
                      B                      A                      B
 Frequencies --    219.2720               219.3458               285.2070
 Red. masses --      3.0103                 3.0155                 8.9245
 Frc consts  --      0.0853                 0.0855                 0.4277
 IR Inten    --      0.0003                 0.0000                 3.0201

                     16                     17                     18
                      A                      B                      B
 Frequencies --    292.0592               320.5947               350.2060
 Red. masses --      3.6956                 2.7106                 4.8200
 Frc consts  --      0.1857                 0.1641                 0.3483
 IR Inten    --      0.0077                 0.8643                 0.2561

                     19                     20                     21
                      A                      A                      B
 Frequencies --    351.1621               400.5904               412.0684
 Red. masses --      2.9861                 5.4835                 2.8848
 Frc consts  --      0.2170                 0.5185                 0.2886
 IR Inten    --      0.1317                 0.3729                 1.0085

                     22                     23                     24
                      A                      B                      A
 Frequencies --    416.5414               426.7351               427.6469
 Red. masses --      3.3391                 4.0832                 5.8535
 Frc consts  --      0.3413                 0.4381                 0.6307
 IR Inten    --      0.0000                 1.6786                 0.0000

                     25                     26                     27
                      B                      A                      B
 Frequencies --    519.1928               548.2791               548.4990
 Red. masses --      3.6630                 9.6914                 9.5396
 Frc consts  --      0.5818                 1.7165                 1.6910
 IR Inten    --      4.9098                25.9830                 4.4919

                     28                     29                     30
                      A                      B                      A
 Frequencies --    560.0154               567.6103               611.6929
 Red. masses --      3.0259                 9.3758                 7.3482
 Frc consts  --      0.5591                 1.7797                 1.6199
 IR Inten    --      2.7270                46.0669                 0.0000

                     31                     32                     33
                      B                      A                      B
 Frequencies --    642.5049               654.7048               689.6308
 Red. masses --      7.0996                 6.9672                 4.5015
 Frc consts  --      1.7268                 1.7596                 1.2614
 IR Inten    --      0.1761                 0.3988                63.5709

                     34                     35                     36
                      A                      B                      B
 Frequencies --    693.3310               715.8222               762.8484
 Red. masses --      3.6492                 6.6152                 4.0415
 Frc consts  --      1.0336                 1.9971                 1.3857
 IR Inten    --     11.3033                12.4197                36.4426

                     37                     38                     39
                      A                      A                      B
 Frequencies --    782.8845               786.1696               809.5293
 Red. masses --      4.3506                 6.2743                15.7690
 Frc consts  --      1.5711                 2.2848                 6.0886
 IR Inten    --      1.2721                 0.0000                 9.2598

                     40                     41                     42
                      A                      B                      B
 Frequencies --    809.6925               848.6444               864.9355
 Red. masses --     15.6827                 1.5729                 1.2475
 Frc consts  --      6.0578                 0.6674                 0.5499
 IR Inten    --      0.0000                37.9242                 0.3018

                     43                     44                     45
                      A                      A                      A
 Frequencies --    867.3257               884.0690               919.6832
 Red. masses --      1.2394                 1.8101                 1.6123
 Frc consts  --      0.5493                 0.8335                 0.8035
 IR Inten    --      0.0000                 6.6843                 0.0000

                     46                     47                     48
                      B                      A                      B
 Frequencies --    919.6839               921.7589               921.8617
 Red. masses --      1.6124                 1.8392                 1.8393
 Frc consts  --      0.8035                 0.9207                 0.9210
 IR Inten    --      0.0000                23.4528               174.4069

                     49                     50                     51
                      B                      A                      B
 Frequencies --    984.8616               985.1895               990.7178
 Red. masses --      1.8340                 1.8474                 1.3144
 Frc consts  --      1.0481                 1.0565                 0.7601
 IR Inten    --     27.1477                 0.0000                 0.0169

                     52                     53                     54
                      A                      B                      A
 Frequencies --    994.1743              1002.8174              1003.1351
 Red. masses --      1.3408                 1.3786                 1.5141
 Frc consts  --      0.7808                 0.8169                 0.8977
 IR Inten    --      0.0000                 0.4538                 0.0000

                     55                     56                     57
                      B                      A                      B
 Frequencies --   1007.9831              1012.4889              1021.8411
 Red. masses --      6.0440                 4.2057                 6.8483
 Frc consts  --      3.6181                 2.5402                 4.2131
 IR Inten    --     31.2519                 0.0000                38.5038

                     58                     59                     60
                      A                      B                      A
 Frequencies --   1044.9815              1045.3551              1047.3940
 Red. masses --      1.7610                 1.7499                 2.5141
 Frc consts  --      1.1330                 1.1267                 1.6250
 IR Inten    --      2.2972                 0.3699                 0.0000

                     61                     62                     63
                      B                      A                      B
 Frequencies --   1060.6355              1144.1433              1144.2148
 Red. masses --      2.0750                 1.8283                 1.5048
 Frc consts  --      1.3753                 1.4101                 1.1607
 IR Inten    --      0.0130                 5.4305                 0.6139

                     64                     65                     66
                      B                      A                      B
 Frequencies --   1149.5067              1149.9715              1174.3962
 Red. masses --      5.8930                 4.5672                 2.3030
 Frc consts  --      4.5878                 3.5585                 1.8715
 IR Inten    --      0.2598                 3.3464               101.6358

                     67                     68                     69
                      A                      B                      A
 Frequencies --   1174.6505              1188.6199              1189.1030
 Red. masses --      2.3546                 2.5548                 2.5333
 Frc consts  --      1.9142                 2.1266                 2.1104
 IR Inten    --      0.0000                 5.1010                40.1444

                     70                     71                     72
                      B                      A                      A
 Frequencies --   1220.2702              1228.3599              1295.6113
 Red. masses --      1.1365                 1.1457                 5.6399
 Frc consts  --      0.9971                 1.0185                 5.5779
 IR Inten    --     58.4584                 0.0000                53.4418

                     73                     74                     75
                      A                      B                      A
 Frequencies --   1306.7812              1314.3259              1335.2132
 Red. masses --      3.5152                 5.9491                 1.4471
 Frc consts  --      3.5368                 6.0550                 1.5200
 IR Inten    --      0.0000                18.8500                72.5226

                     76                     77                     78
                      B                      A                      B
 Frequencies --   1335.6375              1341.4793              1342.7350
 Red. masses --      4.4035                 4.5555                 1.4645
 Frc consts  --      4.6283                 4.8301                 1.5557
 IR Inten    --    639.2628                 0.0000                 1.8001

                     79                     80                     81
                      B                      A                      B
 Frequencies --   1364.7932              1366.4170              1379.7174
 Red. masses --      8.0396                 7.1007                 7.2167
 Frc consts  --      8.8230                 7.8112                 8.0941
 IR Inten    --    122.8370               912.4769              4639.4093

                     82                     83                     84
                      A                      A                      B
 Frequencies --   1395.1681              1423.5214              1439.7546
 Red. masses --      7.7843                 2.5325                 2.7470
 Frc consts  --      8.9273                 3.0236                 3.3550
 IR Inten    --      0.0000                63.1638                13.3556

                     85                     86                     87
                      B                      A                      A
 Frequencies --   1532.7273              1554.5822              1569.6099
 Red. masses --      2.3154                 2.7061                 5.4657
 Frc consts  --      3.2048                 3.8533                 7.9337
 IR Inten    --     45.7067                 0.0000                23.8472

                     88                     89                     90
                      B                      A                      B
 Frequencies --   1595.6698              1646.6681              1647.5734
 Red. masses --      6.5357                 5.4186                 5.5403
 Frc consts  --      9.8046                 8.6567                 8.8609
 IR Inten    --      1.6709                 0.0000               260.3441

                     91                     92                     93
                      B                      A                      B
 Frequencies --   2676.1978              2676.2428              2685.3818
 Red. masses --      1.0959                 1.0959                 1.1022
 Frc consts  --      4.6242                 4.6245                 4.6828
 IR Inten    --     53.1642               381.7254               328.0860

                     94                     95                     96
                      A                      B                      B
 Frequencies --   2685.8501              3165.3462              3165.6147
 Red. masses --      1.1023                 1.0878                 1.0873
 Frc consts  --      4.6852                 6.4217                 6.4194
 IR Inten    --      0.0000                16.4927                 0.2168

                     97                     98                     99
                      A                      A                      B
 Frequencies --   3168.3711              3169.1063              3181.8239
 Red. masses --      1.0878                 1.0869                 1.0941
 Frc consts  --      6.4339                 6.4317                 6.5260
 IR Inten    --      0.0000                 0.2511                 4.5706

                    100                    101                    102
                      B                      A                      A
 Frequencies --   3183.8562              3184.2781              3186.7609
 Red. masses --      1.0952                 1.0935                 1.0951
 Frc consts  --      6.5410                 6.5325                 6.5524
 IR Inten    --      0.2778                26.0975                 0.0000

 - Thermochemistry -
 -------------------
 Temperature   298.150 Kelvin.  Pressure   1.00000 Atm.
 Atom     1 has atomic number  6 and mass  12.00000

 Molecular mass:   318.11922 amu.
 Principal axes and moments of inertia in atomic units:
                           1         2         3
     Eigenvalues --  1251.13272********************
           X           -0.00004   0.00000   1.00000
           Y            1.00000   0.00000   0.00004
           Z            0.00000   1.00000   0.00000
 This molecule is an asymmetric top.
 Rotational symmetry number  2.
 Warning -- assumption of classical behavior for rotation
           may cause significant error
 Rotational temperatures (Kelvin)      0.06923     0.00297     0.00287
 Rotational constants (GHZ):           1.44249     0.06186     0.05990
 Zero-point vibrational energy     666032.9 (Joules/Mol)
                                  159.18569 (Kcal/Mol)
 Warning -- explicit consideration of  30 degrees of freedom as
           vibrations may cause significant error
 Vibrational temperatures:     28.43    46.50    50.50    82.28    89.19
          (Kelvin)            110.61   128.07   139.37   167.47   217.61
                              244.18   276.41   315.48   315.59   410.35
                              420.21   461.26   503.87   505.24   576.36
                              592.87   599.31   613.98   615.29   747.00
                              788.85   789.17   805.74   816.66   880.09
                              924.42   941.97   992.22   997.55  1029.91
                             1097.57  1126.40  1131.12  1164.73  1164.97
                             1221.01  1244.45  1247.89  1271.98  1323.22
                             1323.22  1326.21  1326.35  1417.00  1417.47
                             1425.42  1430.40  1442.83  1443.29  1450.26
                             1456.75  1470.20  1503.50  1504.03  1506.97
                             1526.02  1646.17  1646.27  1653.88  1654.55
                             1689.69  1690.06  1710.16  1710.85  1755.70
                             1767.34  1864.10  1880.17  1891.02  1921.07
                             1921.68  1930.09  1931.90  1963.63  1965.97
                             1985.11  2007.34  2048.13  2071.49  2205.25
                             2236.70  2258.32  2295.81  2369.19  2370.49
                             3850.45  3850.52  3863.67  3864.34  4554.23
                             4554.61  4558.58  4559.64  4577.93  4580.86
                             4581.47  4585.04

 Zero-point correction=                           0.253679 (Hartree/Particle)
 Thermal correction to Energy=                    0.273444
 Thermal correction to Enthalpy=                  0.274388
 Thermal correction to Gibbs Free Energy=         0.203294
 Sum of electronic and zero-point Energies=          -1065.646554
 Sum of electronic and thermal Energies=             -1065.626789
 Sum of electronic and thermal Enthalpies=           -1065.625844
 Sum of electronic and thermal Free Energies=        -1065.696938

                     E (Thermal)             CV                S
                      KCal/Mol        Cal/Mol-Kelvin    Cal/Mol-Kelvin
 Total                  171.589             75.608            149.629
 Electronic               0.000              0.000              0.000
 Translational            0.889              2.981             43.168
 Rotational               0.889              2.981             33.974
 Vibrational            169.811             69.646             72.488
 Vibration     1          0.593              1.986              6.658
 Vibration     2          0.594              1.983              5.682
 Vibration     3          0.594              1.982              5.518
 Vibration     4          0.596              1.975              4.552
 Vibration     5          0.597              1.972              4.393
 Vibration     6          0.599              1.965              3.969
 Vibration     7          0.602              1.957              3.682
 Vibration     8          0.603              1.951              3.516
 Vibration     9          0.608              1.936              3.159
 Vibration    10          0.619              1.901              2.657
 Vibration    11          0.625              1.880              2.439
 Vibration    12          0.634              1.851              2.207
 Vibration    13          0.647              1.812              1.965
 Vibration    14          0.647              1.812              1.964
 Vibration    15          0.683              1.701              1.502
 Vibration    16          0.687              1.689              1.462
 Vibration    17          0.706              1.634              1.307
 Vibration    18          0.727              1.575              1.165
 Vibration    19          0.728              1.573              1.161
 Vibration    20          0.766              1.469              0.960
 Vibration    21          0.776              1.444              0.919
 Vibration    22          0.780              1.434              0.904
 Vibration    23          0.788              1.412              0.869
 Vibration    24          0.789              1.410              0.866
 Vibration    25          0.874              1.207              0.612
 Vibration    26          0.904              1.143              0.548
 Vibration    27          0.904              1.143              0.547
 Vibration    28          0.916              1.118              0.524
 Vibration    29          0.924              1.101              0.509
 Vibration    30          0.971              1.007              0.430

 Optimization completed.
    -- Stationary point found.
 Normal termination of Gaussian 16 at Sun Aug  2 11:18:51 2020.
