 Gaussian 16, Revision C.01,
 Gaussian 16:  ES64L-G16RevC.01  3-Jul-2019

 ----------------------------------------------------------------------
 #P B3LYP/6-311++G(d,p) EmpiricalDispersion=GD3 freq(noraman) SCF=YQC N
 oSymm
 ----------------------------------------------------------------------

 -------------------------------------
 Restart from F_PrimaryAmine_Imine.log
 -------------------------------------
 Symbolic Z-matrix:
 Charge =  0 Multiplicity = 1

                          Input orientation:
 ---------------------------------------------------------------------
 Center     Atomic      Atomic             Coordinates (Angstroms)
 Number     Number       Type             X           Y           Z
 ---------------------------------------------------------------------
      1          9           0        1.230491   -2.388163   -0.443476
      2          6           0        0.639231   -1.192362   -0.248900
      3          6           0       -0.739767   -1.155140   -0.128778
      4          9           0       -1.426502   -2.300244   -0.247689
      5          6           0       -1.431614    0.038409    0.127393
      6          6           0       -0.639231    1.192362    0.248900
      7          9           0       -1.230491    2.388163    0.443476
      8          6           0        0.739767    1.155140    0.128779
      9          9           0        1.426502    2.300244    0.247689
     10          6           0        1.431614   -0.038409   -0.127393
     11          7           0       -2.821473    0.018124    0.132755
     12          6           0       -3.494215    0.726963    0.959971
     13          6           0       -4.957539    0.766143    0.943390
     14          6           0       -5.627542    1.571619    1.874927
     15          6           0       -7.018515    1.632527    1.884856
     16          6           0       -7.751388    0.886856    0.963416
     17          6           0       -7.090743    0.079470    0.031892
     18          6           0       -5.704385    0.017986    0.018356
     19          1           0       -3.011169    1.331099    1.735112
     20          1           0       -5.054533    2.152447    2.590673
     21          1           0       -7.528450    2.258992    2.607526
     22          1           0       -8.834663    0.931860    0.969012
     23          1           0       -7.663562   -0.500811   -0.682529
     24          1           0       -5.178192   -0.603540   -0.695650
     25          7           0        2.821473   -0.018124   -0.132755
     26          6           0        3.494215   -0.726963   -0.959971
     27          6           0        4.957539   -0.766143   -0.943390
     28          6           0        5.627541   -1.571620   -1.874927
     29          6           0        7.018515   -1.632527   -1.884856
     30          6           0        7.751388   -0.886856   -0.963417
     31          6           0        7.090743   -0.079470   -0.031892
     32          6           0        5.704385   -0.017986   -0.018356
     33          1           0        3.011169   -1.331099   -1.735112
     34          1           0        5.054533   -2.152447   -2.590673
     35          1           0        7.528450   -2.258992   -2.607526
     36          1           0        8.834663   -0.931860   -0.969013
     37          1           0        7.663562    0.500811    0.682528
     38          1           0        5.178192    0.603540    0.695650
 ---------------------------------------------------------------------

 SCF Done:  E(RB3LYP) =  -1278.55036935     a.u. after    6 cycles
 SCF Done:  E(RB3LYP) =  -1278.55038632     A.U. after   11 cycles

 Alpha  occ. eigenvalues --  -24.71410 -24.71410 -24.70770 -24.70770 -14.33533
 Alpha  occ. eigenvalues --  -14.33532 -10.28613 -10.28612 -10.28382 -10.28381
 Alpha  occ. eigenvalues --  -10.24533 -10.24531 -10.24217 -10.24217 -10.20086
 Alpha  occ. eigenvalues --  -10.20086 -10.19693 -10.19693 -10.19514 -10.19514
 Alpha  occ. eigenvalues --  -10.19247 -10.19247 -10.19132 -10.19132 -10.19058
 Alpha  occ. eigenvalues --  -10.19058  -1.25978  -1.25911  -1.24439  -1.24392
 Alpha  occ. eigenvalues --   -0.96867  -0.96299  -0.89115  -0.87789  -0.87184
 Alpha  occ. eigenvalues --   -0.80393  -0.78336  -0.77835  -0.76769  -0.76669
 Alpha  occ. eigenvalues --   -0.75766  -0.70162  -0.66172  -0.65897  -0.64500
 Alpha  occ. eigenvalues --   -0.62761  -0.62607  -0.60354  -0.60317  -0.58316
 Alpha  occ. eigenvalues --   -0.57054  -0.56902  -0.54563  -0.53650  -0.53227
 Alpha  occ. eigenvalues --   -0.52789  -0.51895  -0.51578  -0.51137  -0.49880
 Alpha  occ. eigenvalues --   -0.48311  -0.47868  -0.47305  -0.47011  -0.45829
 Alpha  occ. eigenvalues --   -0.45794  -0.44570  -0.44478  -0.44445  -0.43978
 Alpha  occ. eigenvalues --   -0.43953  -0.42486  -0.41358  -0.41116  -0.40339
 Alpha  occ. eigenvalues --   -0.39891  -0.38579  -0.37766  -0.37009  -0.36490
 Alpha  occ. eigenvalues --   -0.36292  -0.36274  -0.34272  -0.31437  -0.28882
 Alpha  occ. eigenvalues --   -0.27552  -0.27471  -0.27323  -0.26722  -0.26052
 Alpha  occ. eigenvalues --   -0.23073
 Alpha virt. eigenvalues --   -0.09365  -0.07254  -0.03020  -0.02964  -0.02074
 Alpha virt. eigenvalues --   -0.01862  -0.01559  -0.00957  -0.00727   0.00259
 Alpha virt. eigenvalues --    0.00629   0.01316   0.01426   0.02061   0.02135

 Mulliken charges:
               1
     1  F   -0.183896
     2  C   -0.444874
     3  C    0.009564
     4  F   -0.171095
     5  C    0.705657
     6  C   -0.444875
     7  F   -0.183896
     8  C    0.009562
     9  F   -0.171095
    10  C    0.705659
    11  N    0.180061
    12  C   -0.182328
    13  C    0.822792
    14  C   -0.608381
    15  C   -0.355206
    16  C   -0.385319
    17  C   -0.215700
    18  C   -0.220282
    19  H    0.159890
    20  H    0.162263
    21  H    0.171478
    22  H    0.165395
    23  H    0.183352
    24  H    0.206629
    25  N    0.180061
    26  C   -0.182326
    27  C    0.822790
    28  C   -0.608381
    29  C   -0.355204
    30  C   -0.385319
    31  C   -0.215700
    32  C   -0.220282
    33  H    0.159890
    34  H    0.162263
    35  H    0.171478
    36  H    0.165395
    37  H    0.183352
    38  H    0.206629
 Sum of Mulliken charges =   0.00000

 Dipole moment (field-independent basis, Debye):
    X=             -0.0000    Y=              0.0000    Z=             -0.0000  Tot=              0.0000
 Quadrupole moment (field-independent basis, Debye-Ang):
   XX=           -101.3105   YY=           -155.8697   ZZ=           -139.6469
   XY=            -10.8977   XZ=            -11.0178   YZ=              8.8589

  Exact polarizability:     573.032     -50.360     202.226     -59.201      53.341     182.906
 Approx polarizability:     693.902     -51.248     352.657     -61.490     104.122     309.055

                      1                      2                      3
                      A                      A                      A
 Frequencies --     16.9176                23.6462                29.6300
 Red. masses --      6.5443                 4.5863                 4.8020
 Frc consts  --      0.0011                 0.0015                 0.0025
 IR Inten    --      0.8404                 0.4296                 0.0000

                      4                      5                      6
                      A                      A                      A
 Frequencies --     32.7300                51.8701                62.7090
 Red. masses --      4.9565                 7.1813                 6.8921
 Frc consts  --      0.0031                 0.0114                 0.0160
 IR Inten    --      0.6537                 0.0000                 0.0000

                      7                      8                      9
                      A                      A                      A
 Frequencies --    105.5433               121.9891               131.6520
 Red. masses --      5.2125                 5.9118                12.8091
 Frc consts  --      0.0342                 0.0518                 0.1308
 IR Inten    --      1.0938                 0.0000                 0.4535

                     10                     11                     12
                      A                      A                      A
 Frequencies --    139.3770               148.7390               180.0367
 Red. masses --      7.6475                 6.3949                 8.6762
 Frc consts  --      0.0875                 0.0834                 0.1657
 IR Inten    --      7.5837                 0.0000                 0.0000

                     13                     14                     15
                      A                      A                      A
 Frequencies --    190.7054               233.0271               248.3729
 Red. masses --      7.8826                 6.0002                 3.8516
 Frc consts  --      0.1689                 0.1920                 0.1400
 IR Inten    --      0.5342                18.1467                 0.0000

                     16                     17                     18
                      A                      A                      A
 Frequencies --    266.3697               278.3801               312.5804
 Red. masses --      4.1989                 6.1225                 9.5453
 Frc consts  --      0.1755                 0.2795                 0.5495
 IR Inten    --     17.8660                 0.0000                 0.0000

                     19                     20                     21
                      A                      A                      A
 Frequencies --    314.6176               317.7887               374.1380
 Red. masses --     10.1923                 8.7320                13.1169
 Frc consts  --      0.5944                 0.5196                 1.0818
 IR Inten    --      1.8392                 1.1609                 5.9394

                     22                     23                     24
                      A                      A                      A
 Frequencies --    381.3367               391.5665               412.9744
 Red. masses --      7.9995                12.5541                 2.8861
 Frc consts  --      0.6854                 1.1341                 0.2900
 IR Inten    --      0.0000                 0.0000                 0.1782

                     25                     26                     27
                      A                      A                      A
 Frequencies --    413.1462               440.4682               446.5725
 Red. masses --      2.8888                 9.6869                 6.2683
 Frc consts  --      0.2905                 1.1073                 0.7365
 IR Inten    --      0.0000                 0.0000                 5.6193

                     28                     29                     30
                      A                      A                      A
 Frequencies --    460.7806               480.7086               503.3915
 Red. masses --      9.0583                10.9375                 3.1805
 Frc consts  --      1.1331                 1.4891                 0.4748
 IR Inten    --      0.0000                 0.0000                23.5118

                     31                     32                     33
                      A                      A                      A
 Frequencies --    514.5316               561.3845               581.6857
 Red. masses --      3.5603                 9.0798                 8.7442
 Frc consts  --      0.5553                 1.6860                 1.7432
 IR Inten    --      0.0000                 0.0000                45.1940

                     34                     35                     36
                      A                      A                      A
 Frequencies --    631.5159               631.5745               661.8824
 Red. masses --      6.4896                 6.4886                11.4603
 Frc consts  --      1.5249                 1.5249                 2.9581
 IR Inten    --      0.2793                 0.0000                15.0333

                     37                     38                     39
                      A                      A                      A
 Frequencies --    677.6393               697.0819               699.9588
 Red. masses --      9.4439                 8.4509                 1.9798
 Frc consts  --      2.5550                 2.4195                 0.5715
 IR Inten    --      1.7603                 0.0000                 0.0002

                     40                     41                     42
                      A                      A                      A
 Frequencies --    700.0819               711.4550               728.8343
 Red. masses --      2.2100                 4.6089                 5.7682
 Frc consts  --      0.6382                 1.3745                 1.8053
 IR Inten    --     62.7021                20.4932                 0.0000

                     43                     44                     45
                      A                      A                      A
 Frequencies --    768.9993               772.8032               794.4320
 Red. masses --      2.1063                 1.8033                 5.8219
 Frc consts  --      0.7339                 0.6345                 2.1648
 IR Inten    --      0.0000                63.8545                 0.0000

                     46                     47                     48
                      A                      A                      A
 Frequencies --    858.3947               858.4383               869.0702
 Red. masses --      1.2504                 1.2504                 4.7164
 Frc consts  --      0.5428                 0.5429                 2.0988
 IR Inten    --      0.3119                 0.0002                26.8415

                     49                     50                     51
                      A                      A                      A
 Frequencies --    886.2235               938.0267               939.2393
 Red. masses --      4.7681                 1.3775                 1.3681
 Frc consts  --      2.2064                 0.7141                 0.7111
 IR Inten    --      0.0000                 3.6502                 0.0000

                     52                     53                     54
                      A                      A                      A
 Frequencies --    974.7701               993.3390               993.3528
 Red. masses --     10.7013                 1.3788                 1.3656
 Frc consts  --      5.9909                 0.8016                 0.7940
 IR Inten    --    182.6535                 5.3286                 0.0047

                     55                     56                     57
                      A                      A                      A
 Frequencies --    994.5407              1004.0133              1008.2466
 Red. masses --      2.2750                 1.4046                 1.4037
 Frc consts  --      1.3258                 0.8342                 0.8407
 IR Inten    --    163.6941                 0.0000                28.1218

                     58                     59                     60
                      A                      A                      A
 Frequencies --   1013.1528              1014.6745              1014.8865
 Red. masses --      1.7268                 6.2569                 3.9820
 Frc consts  --      1.0444                 3.7954                 2.4165
 IR Inten    --      0.0000                 1.1664                 0.0000

                     61                     62                     63
                      A                      A                      A
 Frequencies --   1028.3336              1046.7186              1046.9224
 Red. masses --      3.0920                 2.1593                 2.1350
 Frc consts  --      1.9264                 1.3939                 1.3787
 IR Inten    --    104.9136                 0.0000                15.2581

                     64                     65                     66
                      A                      A                      A
 Frequencies --   1103.7819              1109.5393              1125.1118
 Red. masses --      1.8114                 1.5932                13.3563
 Frc consts  --      1.3003                 1.1556                 9.9616
 IR Inten    --      0.0000                 8.9318                 0.0000

                     67                     68                     69
                      A                      A                      A
 Frequencies --   1142.4069              1192.4743              1192.4895
 Red. masses --      5.2164                 1.1275                 1.1272
 Frc consts  --      4.0111                 0.9446                 0.9444
 IR Inten    --      0.0000                 4.0262                 0.0006

                     70                     71                     72
                      A                      A                      A
 Frequencies --   1203.5125              1204.5556              1244.0134
 Red. masses --      1.1642                 1.1524                 2.9348
 Frc consts  --      0.9935                 0.9851                 2.6759
 IR Inten    --     61.4126                 0.0000                74.4939

                     73                     74                     75
                      A                      A                      A
 Frequencies --   1254.2297              1295.9378              1308.3639
 Red. masses --      2.7688                 7.7499                 7.5678
 Frc consts  --      2.5663                 7.6686                 7.6326
 IR Inten    --      0.0000                 9.5943                15.3710

                     76                     77                     78
                      A                      A                      A
 Frequencies --   1332.4745              1333.6833              1355.5927
 Red. masses --      2.7756                 2.9250                 1.9704
 Frc consts  --      2.9035                 3.0653                 2.1334
 IR Inten    --      0.0000                47.5426                 0.0003

                     79                     80                     81
                      A                      A                      A
 Frequencies --   1355.7193              1393.8102              1412.3571
 Red. masses --      1.9435                 2.6672                 1.6534
 Frc consts  --      2.1046                 3.0529                 1.9432
 IR Inten    --     13.4114                 0.0000                47.9570

                     82                     83                     84
                      A                      A                      A
 Frequencies --   1443.7193              1474.9982              1483.9562
 Red. masses --      2.2557                 3.1780                 2.1637
 Frc consts  --      2.7701                 4.0737                 2.8073
 IR Inten    --      0.0000                37.7022                 0.0000

                     85                     86                     87
                      A                      A                      A
 Frequencies --   1487.9592              1510.9714              1524.6232
 Red. masses --      3.7833                 4.6490                 2.2912
 Frc consts  --      4.9352                 6.2535                 3.1379
 IR Inten    --    164.6304               219.3171                 0.0000

                     88                     89                     90
                      A                      A                      A
 Frequencies --   1527.8288              1591.4971              1613.6800
 Red. masses --      2.6789                11.6377                 5.5553
 Frc consts  --      3.6843                17.3671                 8.5230
 IR Inten    --     32.4899                 0.0000                 0.0000

                     91                     92                     93
                      A                      A                      A
 Frequencies --   1614.6996              1632.3374              1639.1842
 Red. masses --      5.4322                 6.2508                 5.2911
 Frc consts  --      8.3447                 9.8131                 8.3764
 IR Inten    --     84.6868                 0.0000                91.4732

                     94                     95                     96
                      A                      A                      A
 Frequencies --   1651.8317              1681.2630              1693.5087
 Red. masses --      7.9655                 7.4982                 8.0539
 Frc consts  --     12.8055                12.4876                13.6092
 IR Inten    --      0.0000               724.9580                 0.0000

                     97                     98                     99
                      A                      A                      A
 Frequencies --   3046.7973              3046.8334              3157.7683
 Red. masses --      1.0879                 1.0879                 1.0873
 Frc consts  --      5.9499                 5.9501                 6.3879
 IR Inten    --      0.0000                44.5279                 2.4234

                    100                    101                    102
                      A                      A                      A
 Frequencies --   3157.7757              3166.0596              3166.0741
 Red. masses --      1.0873                 1.0880                 1.0880
 Frc consts  --      6.3879                 6.4259                 6.4260
 IR Inten    --      5.1129                 0.3050                 0.0066

                    103                    104                    105
                      A                      A                      A
 Frequencies --   3177.6654              3177.6707              3188.7676
 Red. masses --      1.0916                 1.0916                 1.0961
 Frc consts  --      6.4942                 6.4942                 6.5668
 IR Inten    --      3.0240                27.9010                43.7838

                    106                    107                    108
                      A                      A                      A
 Frequencies --   3188.8074              3198.1647              3198.1821
 Red. masses --      1.0961                 1.0949                 1.0949
 Frc consts  --      6.5669                 6.5984                 6.5986
 IR Inten    --      0.0041                15.9041                 0.0112

 - Thermochemistry -
 -------------------
 Temperature   298.150 Kelvin.  Pressure   1.00000 Atm.
 Atom     1 has atomic number  9 and mass  18.99840

 Molecular mass:   356.09366 amu.
 Principal axes and moments of inertia in atomic units:
                           1         2         3
     Eigenvalues --  2451.18837********************
           X            0.97993   0.17332   0.09847
           Y           -0.13274   0.93588  -0.32634
           Z           -0.14871   0.30673   0.94011
 This molecule is an asymmetric top.
 Rotational symmetry number  1.
 Warning -- assumption of classical behavior for rotation
           may cause significant error
 Rotational temperatures (Kelvin)      0.03534     0.00321     0.00300
 Rotational constants (GHZ):           0.73627     0.06697     0.06245
 Zero-point vibrational energy     712559.5 (Joules/Mol)
                                  170.30581 (Kcal/Mol)
 Warning -- explicit consideration of  33 degrees of freedom as
           vibrations may cause significant error
 Vibrational temperatures:     24.34    34.02    42.63    47.09    74.63
          (Kelvin)             90.22   151.85   175.52   189.42   200.53
                              214.00   259.03   274.38   335.27   357.35
                              383.25   400.53   449.73   452.66   457.23
                              538.30   548.66   563.38   594.18   594.43
                              633.74   642.52   662.96   691.63   724.27
                              740.30   807.71   836.92   908.61   908.69
                              952.30   974.97  1002.95  1007.08  1007.26
                             1023.63  1048.63  1106.42  1111.89  1143.01
                             1235.04  1235.10  1250.40  1275.08  1349.61
                             1351.36  1402.48  1429.19  1429.21  1430.92
                             1444.55  1450.64  1457.70  1459.89  1460.20
                             1479.54  1505.99  1506.29  1588.10  1596.38
                             1618.78  1643.67  1715.70  1715.73  1731.59
                             1733.09  1789.86  1804.56  1864.57  1882.44
                             1917.13  1918.87  1950.40  1950.58  2005.38
                             2032.07  2077.19  2122.19  2135.08  2140.84
                             2173.95  2193.59  2198.20  2289.81  2321.73
                             2323.19  2348.57  2358.42  2376.62  2418.96
                             2436.58  4383.66  4383.71  4543.32  4543.33
                             4555.25  4555.27  4571.95  4571.96  4587.93
                             4587.98  4601.45  4601.47

 Zero-point correction=                           0.271400 (Hartree/Particle)
 Thermal correction to Energy=                    0.292922
 Thermal correction to Enthalpy=                  0.293866
 Thermal correction to Gibbs Free Energy=         0.217778
 Sum of electronic and zero-point Energies=          -1278.278987
 Sum of electronic and thermal Energies=             -1278.257465
 Sum of electronic and thermal Enthalpies=           -1278.256520
 Sum of electronic and thermal Free Energies=        -1278.332608

                     E (Thermal)             CV                S
                      KCal/Mol        Cal/Mol-Kelvin    Cal/Mol-Kelvin
 Total                  183.811             82.018            160.141
 Electronic               0.000              0.000              0.000
 Translational            0.889              2.981             43.504
 Rotational               0.889              2.981             35.900
 Vibrational            182.034             76.057             80.737
 Vibration     1          0.593              1.986              6.967
 Vibration     2          0.593              1.985              6.302
 Vibration     3          0.593              1.984              5.854
 Vibration     4          0.594              1.983              5.657
 Vibration     5          0.596              1.977              4.745
 Vibration     6          0.597              1.972              4.370
 Vibration     7          0.605              1.945              3.349
 Vibration     8          0.609              1.931              3.069
 Vibration     9          0.612              1.922              2.922
 Vibration    10          0.615              1.914              2.812
 Vibration    11          0.618              1.904              2.688
 Vibration    12          0.629              1.867              2.328
 Vibration    13          0.634              1.853              2.221
 Vibration    14          0.654              1.790              1.856
 Vibration    15          0.662              1.765              1.742
 Vibration    16          0.672              1.735              1.620
 Vibration    17          0.679              1.714              1.544
 Vibration    18          0.701              1.650              1.349
 Vibration    19          0.702              1.646              1.338
 Vibration    20          0.704              1.640              1.321
 Vibration    21          0.745              1.525              1.063
 Vibration    22          0.751              1.510              1.034
 Vibration    23          0.759              1.488              0.994
 Vibration    24          0.777              1.442              0.916
 Vibration    25          0.777              1.442              0.916
 Vibration    26          0.800              1.382              0.825
 Vibration    27          0.806              1.368              0.806
 Vibration    28          0.819              1.337              0.764
 Vibration    29          0.837              1.293              0.708
 Vibration    30          0.859              1.242              0.650
 Vibration    31          0.870              1.218              0.623
 Vibration    32          0.917              1.115              0.521
 Vibration    33          0.938              1.071              0.482

 Optimization completed.
    -- Stationary point found.
 Normal termination of Gaussian 16 at Sat Oct 17 03:39:14 2020.
