 Gaussian 16, Revision C.01,
 Gaussian 16:  ES64L-G16RevC.01  3-Jul-2019

 ----------------------------------------------------------------------
 #P B3LYP/6-311++G(d,p) EmpiricalDispersion=GD3 freq(noraman) SCF=YQC N
 oSymm
 ----------------------------------------------------------------------

 ---------------------------------
 Restart from F_Aldehyde_Imine.log
 ---------------------------------
 Symbolic Z-matrix:
 Charge =  0 Multiplicity = 1

                          Input orientation:
 ---------------------------------------------------------------------
 Center     Atomic      Atomic             Coordinates (Angstroms)
 Number     Number       Type             X           Y           Z
 ---------------------------------------------------------------------
      1          9           0        1.212326   -2.424630   -0.222475
      2          6           0        0.653893   -1.219124   -0.114565
      3          6           0       -0.729423   -1.150936   -0.078116
      4          9           0       -1.414943   -2.306942   -0.157723
      5          6           0       -1.435881    0.055912    0.037751
      6          6           0       -0.653893    1.219124    0.114565
      7          9           0       -1.212326    2.424630    0.222475
      8          6           0        0.729423    1.150936    0.078115
      9          9           0        1.414943    2.306942    0.157723
     10          6           0        1.435881   -0.055912   -0.037751
     11          6           0       -7.818900    0.891834    0.164688
     12          6           0       -7.138874    1.769189    1.011209
     13          6           0       -7.097898    0.067048   -0.698556
     14          6           0       -5.706468    0.098800   -0.703985
     15          6           0       -5.018347    0.967623    0.159116
     16          6           0       -5.749861    1.823229    0.995874
     17          6           0       -2.901291    0.022716    0.065090
     18          7           0       -3.618085    1.070897    0.196356
     19          1           0       -7.694018    2.422627    1.674655
     20          1           0       -7.620849   -0.596782   -1.377899
     21          1           0       -5.153082   -0.520104   -1.400962
     22          1           0       -5.207441    2.511666    1.632728
     23          1           0       -3.338420   -0.976738   -0.018339
     24          1           0       -8.902371    0.863838    0.165339
     25          6           0        7.818899   -0.891834   -0.164688
     26          6           0        7.138874   -1.769189   -1.011209
     27          6           0        7.097898   -0.067048    0.698556
     28          6           0        5.706468   -0.098800    0.703984
     29          6           0        5.018347   -0.967623   -0.159116
     30          6           0        5.749861   -1.823230   -0.995874
     31          6           0        2.901291   -0.022716   -0.065091
     32          7           0        3.618085   -1.070897   -0.196355
     33          1           0        7.694018   -2.422627   -1.674655
     34          1           0        7.620849    0.596783    1.377899
     35          1           0        5.153082    0.520104    1.400962
     36          1           0        5.207441   -2.511666   -1.632728
     37          1           0        3.338420    0.976738    0.018339
     38          1           0        8.902371   -0.863838   -0.165339
 ---------------------------------------------------------------------

 SCF Done:  E(RB3LYP) =  -1278.54468597     a.u. after    6 cycles
 SCF Done:  E(RB3LYP) =  -1278.54471844     A.U. after   10 cycles

 Alpha  occ. eigenvalues --  -24.72592 -24.72592 -24.71723 -24.71722 -14.33635
 Alpha  occ. eigenvalues --  -14.33635 -10.30239 -10.30238 -10.30179 -10.30178
 Alpha  occ. eigenvalues --  -10.24722 -10.24722 -10.23869 -10.23868 -10.22190
 Alpha  occ. eigenvalues --  -10.22190 -10.18945 -10.18944 -10.18855 -10.18855
 Alpha  occ. eigenvalues --  -10.18707 -10.18707 -10.18604 -10.18604 -10.18477
 Alpha  occ. eigenvalues --  -10.18477  -1.27303  -1.27240  -1.25647  -1.25607
 Alpha  occ. eigenvalues --   -0.96434  -0.96283  -0.91647  -0.86697  -0.86314
 Alpha  occ. eigenvalues --   -0.82686  -0.79139  -0.77228  -0.76289  -0.76203
 Alpha  occ. eigenvalues --   -0.75346  -0.71844  -0.67098  -0.66103  -0.64589
 Alpha  occ. eigenvalues --   -0.62264  -0.62228  -0.61654  -0.60657  -0.59089
 Alpha  occ. eigenvalues --   -0.57411  -0.56997  -0.55791  -0.55294  -0.53466
 Alpha  occ. eigenvalues --   -0.53065  -0.51716  -0.51153  -0.49651  -0.49467
 Alpha  occ. eigenvalues --   -0.49229  -0.48758  -0.48419  -0.48082  -0.46922
 Alpha  occ. eigenvalues --   -0.46539  -0.45615  -0.45154  -0.44966  -0.43674
 Alpha  occ. eigenvalues --   -0.43670  -0.43062  -0.42128  -0.40831  -0.40708
 Alpha  occ. eigenvalues --   -0.39807  -0.38660  -0.37773  -0.37690  -0.37149
 Alpha  occ. eigenvalues --   -0.36414  -0.36021  -0.34412  -0.30823  -0.29576
 Alpha  occ. eigenvalues --   -0.28038  -0.27223  -0.26969  -0.26944  -0.24899
 Alpha  occ. eigenvalues --   -0.23860
 Alpha virt. eigenvalues --   -0.11229  -0.05764  -0.03153  -0.02637  -0.02630
 Alpha virt. eigenvalues --   -0.02261  -0.01543  -0.00754  -0.00516   0.00253
 Alpha virt. eigenvalues --    0.00398   0.00868   0.01420   0.01785   0.02185

 Mulliken charges:
               1
     1  F   -0.124917
     2  C   -0.685717
     3  C   -1.315684
     4  F   -0.176104
     5  C    1.891093
     6  C   -0.685717
     7  F   -0.124917
     8  C   -1.315683
     9  F   -0.176104
    10  C    1.891095
    11  C   -0.412663
    12  C   -0.093917
    13  C   -0.110013
    14  C   -0.063594
    15  C   -0.304464
    16  C    0.162639
    17  C    0.057368
    18  N    0.181248
    19  H    0.180141
    20  H    0.179258
    21  H    0.157284
    22  H    0.182066
    23  H    0.142344
    24  H    0.153632
    25  C   -0.412663
    26  C   -0.093916
    27  C   -0.110014
    28  C   -0.063594
    29  C   -0.304464
    30  C    0.162640
    31  C    0.057367
    32  N    0.181248
    33  H    0.180141
    34  H    0.179258
    35  H    0.157284
    36  H    0.182066
    37  H    0.142344
    38  H    0.153632
 Sum of Mulliken charges =   0.00000

 Dipole moment (field-independent basis, Debye):
    X=             -0.0000    Y=             -0.0000    Z=             -0.0000  Tot=              0.0000
 Quadrupole moment (field-independent basis, Debye-Ang):
   XX=           -115.4754   YY=           -158.0734   ZZ=           -144.1543
   XY=              4.3011   XZ=              0.3827   YZ=              6.7483

  Exact polarizability:     604.391     -60.290     219.036     -11.760      40.500     160.817
 Approx polarizability:     737.669     -72.094     395.321     -14.301      81.592     268.362

                      1                      2                      3
                      A                      A                      A
 Frequencies --     14.9627                22.0581                22.7595
 Red. masses --      6.4150                 4.7887                 3.9840
 Frc consts  --      0.0008                 0.0014                 0.0012
 IR Inten    --      0.0139                 0.0000                 1.2419

                      4                      5                      6
                      A                      A                      A
 Frequencies --     33.4591                52.7118                62.9511
 Red. masses --      6.4009                 7.2988                 6.7918
 Frc consts  --      0.0042                 0.0119                 0.0159
 IR Inten    --      1.2233                 0.0000                 0.0000

                      7                      8                      9
                      A                      A                      A
 Frequencies --     94.9044               114.2500               124.9235
 Red. masses --      6.4600                 6.6539                17.9611
 Frc consts  --      0.0343                 0.0512                 0.1651
 IR Inten    --      3.1828                 0.0000                 0.1147

                     10                     11                     12
                      A                      A                      A
 Frequencies --    145.6691               157.3513               189.2464
 Red. masses --      7.5108                 5.9283                 4.4953
 Frc consts  --      0.0939                 0.0865                 0.0949
 IR Inten    --      0.0000                 3.5505                23.8617

                     13                     14                     15
                      A                      A                      A
 Frequencies --    203.4152               213.4216               223.0339
 Red. masses --      3.4321                 6.4226                 4.6550
 Frc consts  --      0.0837                 0.1724                 0.1364
 IR Inten    --      0.0000                 0.0000                12.6683

                     16                     17                     18
                      A                      A                      A
 Frequencies --    251.2365               289.4897               318.1988
 Red. masses --      7.8515                 6.8349                18.1002
 Frc consts  --      0.2920                 0.3375                 1.0798
 IR Inten    --      1.3377                 0.0000                 0.0000

                     19                     20                     21
                      A                      A                      A
 Frequencies --    318.7569               327.7240               386.4409
 Red. masses --      6.6132                14.8627                12.6515
 Frc consts  --      0.3959                 0.9405                 1.1132
 IR Inten    --      1.9506                 1.6360                12.2511

                     22                     23                     24
                      A                      A                      A
 Frequencies --    395.0735               415.6822               419.4596
 Red. masses --      5.8910                 9.4882                 3.1426
 Frc consts  --      0.5417                 0.9660                 0.3258
 IR Inten    --      0.0000                 0.0000                 0.0000

                     25                     26                     27
                      A                      A                      A
 Frequencies --    419.5932               443.7153               464.1672
 Red. masses --      2.9507                11.8652                 5.9552
 Frc consts  --      0.3061                 1.3764                 0.7560
 IR Inten    --     10.1345                 0.0000                 4.4566

                     28                     29                     30
                      A                      A                      A
 Frequencies --    474.9231               484.9488               527.8161
 Red. masses --      9.6331                 8.5352                 3.2781
 Frc consts  --      1.2801                 1.1826                 0.5381
 IR Inten    --      0.0000                 0.0000                24.6388

                     31                     32                     33
                      A                      A                      A
 Frequencies --    534.2114               559.5372               575.5167
 Red. masses --      3.5408                 9.3121                 9.3773
 Frc consts  --      0.5954                 1.7177                 1.8300
 IR Inten    --      0.0000                 0.0000                28.6250

                     34                     35                     36
                      A                      A                      A
 Frequencies --    630.5012               630.5219               666.7264
 Red. masses --      6.4960                 6.4524                 7.2124
 Frc consts  --      1.5215                 1.5114                 1.8890
 IR Inten    --      0.0000                 0.3172                 8.1879

                     37                     38                     39
                      A                      A                      A
 Frequencies --    674.4183               690.8094               692.0756
 Red. masses --      5.3404                11.0242                 7.2379
 Frc consts  --      1.4311                 3.0997                 2.0425
 IR Inten    --      0.0000                 2.0277                28.5009

                     40                     41                     42
                      A                      A                      A
 Frequencies --    702.6805               704.5897               728.8086
 Red. masses --      1.8473                 1.7305                 6.6302
 Frc consts  --      0.5374                 0.5062                 2.0749
 IR Inten    --      0.0000                86.4919                 0.0000

                     43                     44                     45
                      A                      A                      A
 Frequencies --    779.1740               781.3018               782.8694
 Red. masses --      2.0393                 3.7074                 2.8966
 Frc consts  --      0.7294                 1.3334                 1.0460
 IR Inten    --     82.6588                 0.0000                 0.0000

                     46                     47                     48
                      A                      A                      A
 Frequencies --    843.7914               843.9199               846.9221
 Red. masses --      1.2522                 1.2509                 5.7870
 Frc consts  --      0.5253                 0.5249                 2.4456
 IR Inten    --      5.9844                 0.0001                46.6532

                     49                     50                     51
                      A                      A                      A
 Frequencies --    897.8564               922.4035               926.6634
 Red. masses --      5.4759                 1.5748                 1.5684
 Frc consts  --      2.6009                 0.7894                 0.7935
 IR Inten    --      0.0000                 6.5847                 0.0000

                     52                     53                     54
                      A                      A                      A
 Frequencies --    948.3846               982.2062               982.2602
 Red. masses --      5.4824                 1.3718                 1.3702
 Frc consts  --      2.9053                 0.7797                 0.7789
 IR Inten    --     59.6094                 0.0001                 1.2405

                     55                     56                     57
                      A                      A                      A
 Frequencies --    995.6972               997.3781              1000.1615
 Red. masses --      1.6911                 1.7326                 1.2956
 Frc consts  --      0.9878                 1.0155                 0.7636
 IR Inten    --      0.0000                 9.5800                 0.0003

                     58                     59                     60
                      A                      A                      A
 Frequencies --   1000.2037              1014.0538              1014.3624
 Red. masses --      1.2978                 4.6077                 4.5850
 Frc consts  --      0.7650                 2.7916                 2.7796
 IR Inten    --      0.9364                 0.0000                 3.3939

                     61                     62                     63
                      A                      A                      A
 Frequencies --   1035.6136              1045.7826              1045.9872
 Red. masses --      9.8136                 2.1193                 2.1095
 Frc consts  --      6.2012                 1.3656                 1.3598
 IR Inten    --    124.5795                 0.0000                16.4759

                     64                     65                     66
                      A                      A                      A
 Frequencies --   1107.5821              1107.9333              1113.5771
 Red. masses --      1.5419                 1.5339                 8.1037
 Frc consts  --      1.1145                 1.1094                 5.9207
 IR Inten    --      0.0000                 9.9891                 0.0000

                     67                     68                     69
                      A                      A                      A
 Frequencies --   1160.6824              1189.2690              1189.6808
 Red. masses --      7.6686                 1.1338                 1.1310
 Frc consts  --      6.0869                 0.9448                 0.9431
 IR Inten    --      0.0000                 0.8938                 0.0000

                     70                     71                     72
                      A                      A                      A
 Frequencies --   1199.4300              1200.9745              1234.6336
 Red. masses --      1.2283                 1.1952                 3.5431
 Frc consts  --      1.0411                 1.0157                 3.1820
 IR Inten    --      0.6775                 0.0000                52.3140

                     73                     74                     75
                      A                      A                      A
 Frequencies --   1245.9174              1304.3149              1318.8063
 Red. masses --      3.7863                 5.5248                 3.7328
 Frc consts  --      3.4630                 5.5377                 3.8251
 IR Inten    --      0.0000                12.7209                24.9411

                     76                     77                     78
                      A                      A                      A
 Frequencies --   1320.6038              1333.5476              1351.7150
 Red. masses --      3.4371                 8.8059                 1.6485
 Frc consts  --      3.5318                 9.2266                 1.7747
 IR Inten    --      0.0000                69.6704                 0.0000

                     79                     80                     81
                      A                      A                      A
 Frequencies --   1351.8965              1399.1586              1425.1175
 Red. masses --      1.6483                 8.2881                 1.4044
 Frc consts  --      1.7749                 9.5596                 1.6805
 IR Inten    --      8.2519                 0.0000                 0.0000

                     82                     83                     84
                      A                      A                      A
 Frequencies --   1430.4148              1470.0052              1479.2375
 Red. masses --      1.6302                 4.6836                 2.2311
 Frc consts  --      1.9652                 5.9631                 2.8763
 IR Inten    --    131.8055                33.7439                 0.0000

                     85                     86                     87
                      A                      A                      A
 Frequencies --   1480.3580              1499.8847              1516.0583
 Red. masses --      2.3384                 9.8600                 2.2045
 Frc consts  --      3.0193                13.0690                 2.9853
 IR Inten    --     22.7862               286.1871                 0.0000

                     88                     89                     90
                      A                      A                      A
 Frequencies --   1518.5971              1588.4777              1611.2652
 Red. masses --      2.3329                11.2783                 5.3165
 Frc consts  --      3.1698                16.7671                 8.1323
 IR Inten    --     24.0024                 0.0000                 0.0801

                     91                     92                     93
                      A                      A                      A
 Frequencies --   1611.2725              1625.2039              1626.5398
 Red. masses --      5.3197                 5.7189                 5.6248
 Frc consts  --      8.1372                 8.8998                 8.7677
 IR Inten    --      6.0612                 0.0000                32.5207

                     94                     95                     96
                      A                      A                      A
 Frequencies --   1660.1655              1679.4847              1685.2799
 Red. masses --      8.0780                 6.9135                 8.2164
 Frc consts  --     13.1176                11.4894                13.7492
 IR Inten    --      0.0000                65.6289                 0.0000

                     97                     98                     99
                      A                      A                      A
 Frequencies --   3056.3363              3056.6898              3161.4791
 Red. masses --      1.0862                 1.0864                 1.0855
 Frc consts  --      5.9780                 5.9803                 6.3925
 IR Inten    --     63.1999                 0.0001                 6.7722

                    100                    101                    102
                      A                      A                      A
 Frequencies --   3161.4966              3169.5608              3169.5633
 Red. masses --      1.0855                 1.0882                 1.0882
 Frc consts  --      6.3926                 6.4409                 6.4409
 IR Inten    --      0.1793                 4.1494                 2.6894

                    103                    104                    105
                      A                      A                      A
 Frequencies --   3179.1324              3179.1376              3187.4889
 Red. masses --      1.0920                 1.0920                 1.0948
 Frc consts  --      6.5027                 6.5027                 6.5534
 IR Inten    --     15.2597                 7.4551                33.4706

                    106                    107                    108
                      A                      A                      A
 Frequencies --   3187.4972              3194.4115              3194.4575
 Red. masses --      1.0947                 1.0971                 1.0971
 Frc consts  --      6.5533                 6.5960                 6.5964
 IR Inten    --      1.1376                31.1005                 0.0031

 - Thermochemistry -
 -------------------
 Temperature   298.150 Kelvin.  Pressure   1.00000 Atm.
 Atom     1 has atomic number  9 and mass  18.99840

 Molecular mass:   356.09366 amu.
 Principal axes and moments of inertia in atomic units:
                           1         2         3
     Eigenvalues --  2459.22613********************
           X            0.98841   0.15157  -0.00803
           Y           -0.14927   0.96109  -0.23245
           Z           -0.02752   0.23095   0.97258
 This molecule is an asymmetric top.
 Rotational symmetry number  1.
 Warning -- assumption of classical behavior for rotation
           may cause significant error
 Rotational temperatures (Kelvin)      0.03522     0.00319     0.00297
 Rotational constants (GHZ):           0.73387     0.06651     0.06189
 Zero-point vibrational energy     711922.0 (Joules/Mol)
                                  170.15345 (Kcal/Mol)
 Warning -- explicit consideration of  33 degrees of freedom as
           vibrations may cause significant error
 Vibrational temperatures:     21.53    31.74    32.75    48.14    75.84
          (Kelvin)             90.57   136.55   164.38   179.74   209.59
                              226.39   272.28   292.67   307.07   320.90
                              361.47   416.51   457.82   458.62   471.52
                              556.00   568.42   598.07   603.51   603.70
                              638.41   667.83   683.31   697.73   759.41
                              768.61   805.05   828.04   907.15   907.18
                              959.27   970.34   993.92   995.74  1011.00
                             1013.75  1048.59  1121.06  1124.12  1126.37
                             1214.03  1214.21  1218.53  1291.82  1327.13
                             1333.26  1364.51  1413.18  1413.25  1432.59
                             1435.00  1439.01  1439.07  1459.00  1459.44
                             1490.02  1504.65  1504.94  1593.56  1594.07
                             1602.19  1669.96  1711.09  1711.69  1725.71
                             1727.93  1776.36  1792.60  1876.62  1897.47
                             1900.05  1918.68  1944.82  1945.08  2013.08
                             2050.43  2058.05  2115.01  2128.29  2129.90
                             2158.00  2181.27  2184.92  2285.47  2318.25
                             2318.26  2338.31  2340.23  2388.61  2416.40
                             2424.74  4397.39  4397.89  4548.66  4548.69
                             4560.29  4560.29  4574.06  4574.07  4586.09
                             4586.10  4596.05  4596.11

 Zero-point correction=                           0.271157 (Hartree/Particle)
 Thermal correction to Energy=                    0.292646
 Thermal correction to Enthalpy=                  0.293590
 Thermal correction to Gibbs Free Energy=         0.217115
 Sum of electronic and zero-point Energies=          -1278.273562
 Sum of electronic and thermal Energies=             -1278.252072
 Sum of electronic and thermal Enthalpies=           -1278.251128
 Sum of electronic and thermal Free Energies=        -1278.327604

                     E (Thermal)             CV                S
                      KCal/Mol        Cal/Mol-Kelvin    Cal/Mol-Kelvin
 Total                  183.638             81.959            160.956
 Electronic               0.000              0.000              0.000
 Translational            0.889              2.981             43.504
 Rotational               0.889              2.981             35.919
 Vibrational            181.861             75.997             81.534
 Vibration     1          0.593              1.986              7.210
 Vibration     2          0.593              1.985              6.440
 Vibration     3          0.593              1.985              6.378
 Vibration     4          0.594              1.983              5.613
 Vibration     5          0.596              1.977              4.713
 Vibration     6          0.597              1.972              4.362
 Vibration     7          0.603              1.953              3.556
 Vibration     8          0.607              1.938              3.195
 Vibration     9          0.610              1.928              3.023
 Vibration    10          0.617              1.907              2.728
 Vibration    11          0.621              1.894              2.581
 Vibration    12          0.633              1.855              2.235
 Vibration    13          0.639              1.835              2.102
 Vibration    14          0.644              1.820              2.014
 Vibration    15          0.649              1.806              1.934
 Vibration    16          0.663              1.761              1.722
 Vibration    17          0.686              1.693              1.477
 Vibration    18          0.705              1.639              1.319
 Vibration    19          0.705              1.638              1.316
 Vibration    20          0.711              1.620              1.271
 Vibration    21          0.755              1.499              1.014
 Vibration    22          0.762              1.481              0.981
 Vibration    23          0.779              1.436              0.907
 Vibration    24          0.782              1.428              0.894
 Vibration    25          0.782              1.428              0.893
 Vibration    26          0.803              1.375              0.815
 Vibration    27          0.822              1.330              0.754
 Vibration    28          0.832              1.306              0.724
 Vibration    29          0.841              1.283              0.697
 Vibration    30          0.883              1.188              0.592
 Vibration    31          0.889              1.174              0.578
 Vibration    32          0.915              1.119              0.525
 Vibration    33          0.932              1.084              0.494

 Normal termination of Gaussian 16 at Sat Oct 17 02:33:46 2020.
