 Gaussian 16, Revision C.01,
 Gaussian 16:  ES64L-G16RevC.01  3-Jul-2019

 --------------------------------------------------------------------
 #P B3LYP/6-311++G(d,p) EmpiricalDispersion=GD3 freq(noraman) SCF=YQC
 --------------------------------------------------------------------

 ------------------------------------------------
 Restart from Pyrene_H_Catechol_BoronateEster.log
 ------------------------------------------------
 Symbolic Z-matrix:
 Charge =  0 Multiplicity = 1

                         Standard orientation:
 ---------------------------------------------------------------------
 Center     Atomic      Atomic             Coordinates (Angstroms)
 Number     Number       Type             X           Y           Z
 ---------------------------------------------------------------------
      1          6           0        0.000002    3.548247   -0.000001
      2          6           0       -1.210778    2.861265   -0.000001
      3          6           0       -1.225105    1.461005   -0.000002
      4          6           0        0.000000    0.718378   -0.000002
      5          6           0        1.225106    1.461004   -0.000002
      6          6           0        1.210781    2.861263   -0.000001
      7          1           0       -2.152577    3.395941   -0.000001
      8          1           0        2.152580    3.395939   -0.000001
      9          6           0        0.000000   -0.718377   -0.000002
     10          6           0       -1.225106   -1.461003   -0.000002
     11          6           0       -1.210781   -2.861263   -0.000001
     12          6           0       -0.000002   -3.548246   -0.000001
     13          6           0        1.210778   -2.861264   -0.000001
     14          6           0        1.225105   -1.461005   -0.000002
     15          1           0       -2.152580   -3.395938   -0.000001
     16          1           0        2.152577   -3.395941   -0.000001
     17          6           0        2.410758    0.679647   -0.000002
     18          6           0        2.410757   -0.679649   -0.000002
     19          6           0       -2.410757    0.679650   -0.000002
     20          6           0       -2.410758   -0.679647   -0.000002
     21          1           0        0.000002    4.632262    0.000000
     22          1           0       -0.000002   -4.632262    0.000000
     23          5           0        4.507178   -0.000002   -0.000007
     24          6           0        6.043435   -0.000002   -0.000001
     25          6           0        6.761467    1.207727    0.000001
     26          6           0        6.761470   -1.207729    0.000001
     27          6           0        8.153377    1.208987    0.000004
     28          6           0        8.153380   -1.208985    0.000004
     29          6           0        8.850371    0.000002    0.000006
     30          8           0        3.707828    1.143744   -0.000001
     31          8           0        3.707827   -1.143747    0.000000
     32          1           0        8.695960    2.147769    0.000006
     33          1           0        8.695965   -2.147766    0.000006
     34          1           0        6.220232   -2.147642   -0.000001
     35          1           0        6.220227    2.147639   -0.000001
     36          1           0        9.934897    0.000003    0.000009
     37          5           0       -4.507178    0.000003   -0.000007
     38          6           0       -6.043435    0.000002   -0.000001
     39          6           0       -6.761467   -1.207727    0.000001
     40          6           0       -6.761471    1.207728    0.000001
     41          6           0       -8.153376   -1.208987    0.000004
     42          6           0       -8.153380    1.208984    0.000004
     43          6           0       -8.850371   -0.000003    0.000006
     44          8           0       -3.707828   -1.143743   -0.000001
     45          8           0       -3.707827    1.143747    0.000000
     46          1           0       -8.695959   -2.147770    0.000006
     47          1           0       -8.695966    2.147765    0.000006
     48          1           0       -6.220233    2.147642   -0.000001
     49          1           0       -6.220226   -2.147639   -0.000001
     50          1           0       -9.934897   -0.000004    0.000009
 ---------------------------------------------------------------------

 SCF Done:  E(RB3LYP) =  -1427.88216695     a.u. after    7 cycles
 SCF Done:  E(RB3LYP) =  -1427.88217352     A.U. after    8 cycles

 The electronic state is 1-A.
 Alpha  occ. eigenvalues --  -19.17372 -19.17371 -19.17370 -19.17369 -10.24251
 Alpha  occ. eigenvalues --  -10.24251 -10.24180 -10.24180 -10.20521 -10.20517
 Alpha  occ. eigenvalues --  -10.20508 -10.20508 -10.20446 -10.20410 -10.18838
 Alpha  occ. eigenvalues --  -10.18838 -10.18794 -10.18794 -10.18684 -10.18683
 Alpha  occ. eigenvalues --  -10.18673 -10.18673 -10.18630 -10.18630 -10.18630
 Alpha  occ. eigenvalues --  -10.18630 -10.18381 -10.18381 -10.18377 -10.18377
 Alpha  occ. eigenvalues --  -10.17347 -10.17347  -6.79999  -6.79999  -1.12153
 Alpha  occ. eigenvalues --   -1.12145  -1.04496  -1.04491  -0.90939  -0.86782
 Alpha  occ. eigenvalues --   -0.86539  -0.86510  -0.84067  -0.81239  -0.78431
 Alpha  occ. eigenvalues --   -0.76325  -0.75920  -0.75750  -0.75730  -0.74992
 Alpha  occ. eigenvalues --   -0.74144  -0.72618  -0.65469  -0.65258  -0.64658
 Alpha  occ. eigenvalues --   -0.63635  -0.61963  -0.61552  -0.61304  -0.61001
 Alpha  occ. eigenvalues --   -0.58510  -0.57703  -0.57195  -0.56711  -0.56399
 Alpha  occ. eigenvalues --   -0.53087  -0.52317  -0.51689  -0.51121  -0.49429
 Alpha  occ. eigenvalues --   -0.48471  -0.47951  -0.47822  -0.46964  -0.46552
 Alpha  occ. eigenvalues --   -0.46272  -0.46147  -0.45707  -0.45436  -0.44673
 Alpha  occ. eigenvalues --   -0.43917  -0.43219  -0.43159  -0.41961  -0.41803
 Alpha  occ. eigenvalues --   -0.41124  -0.41051  -0.39737  -0.39407  -0.39023
 Alpha  occ. eigenvalues --   -0.38655  -0.38377  -0.38297  -0.38078  -0.37881
 Alpha  occ. eigenvalues --   -0.37482  -0.36387  -0.35897  -0.35278  -0.35248
 Alpha  occ. eigenvalues --   -0.34742  -0.34551  -0.34544  -0.33002  -0.31068
 Alpha  occ. eigenvalues --   -0.28466  -0.27693  -0.26964  -0.26607  -0.26601
 Alpha  occ. eigenvalues --   -0.24748  -0.23782  -0.20458
 Alpha virt. eigenvalues --   -0.07249  -0.05387  -0.05222  -0.04493  -0.02288
 Alpha virt. eigenvalues --   -0.02224  -0.01166  -0.00928  -0.00842  -0.00162
 Alpha virt. eigenvalues --   -0.00050   0.00462   0.00797   0.00852   0.01346

 Mulliken charges:
               1
     1  C   -0.408917
     2  C   -0.216905
     3  C    0.332064
     4  C    0.200836
     5  C    0.332064
     6  C   -0.216905
     7  H    0.126978
     8  H    0.126978
     9  C    0.200836
    10  C    0.332064
    11  C   -0.216905
    12  C   -0.408917
    13  C   -0.216904
    14  C    0.332064
    15  H    0.126978
    16  H    0.126978
    17  C   -0.300103
    18  C   -0.300104
    19  C   -0.300103
    20  C   -0.300103
    21  H    0.193970
    22  H    0.193970
    23  B    0.740064
    24  C   -0.375139
    25  C   -0.045854
    26  C   -0.045854
    27  C   -0.104888
    28  C   -0.104888
    29  C   -0.387352
    30  O   -0.209624
    31  O   -0.209626
    32  H    0.182041
    33  H    0.182041
    34  H    0.180221
    35  H    0.180221
    36  H    0.148680
    37  B    0.740064
    38  C   -0.375140
    39  C   -0.045853
    40  C   -0.045855
    41  C   -0.104888
    42  C   -0.104888
    43  C   -0.387353
    44  O   -0.209624
    45  O   -0.209626
    46  H    0.182041
    47  H    0.182041
    48  H    0.180221
    49  H    0.180221
    50  H    0.148680
 Sum of Mulliken charges =  -0.00000

 Dipole moment (field-independent basis, Debye):
    X=             -0.0000    Y=              0.0000    Z=             -0.0000  Tot=              0.0000
 Quadrupole moment (field-independent basis, Debye-Ang):
   XX=           -158.8848   YY=           -175.1277   ZZ=           -202.5922
   XY=              0.0000   XZ=              0.0000   YZ=             -0.0000

  Exact polarizability:     602.244       0.000     430.471       0.000       0.000     168.668
 Approx polarizability:     777.660       0.000     872.298       0.000      -0.000     281.468

                      1                      2                      3
                      A                      A                      A
 Frequencies --     16.5545                34.4983                38.5952
 Red. masses --      6.5648                 3.6716                 3.8547
 Frc consts  --      0.0011                 0.0026                 0.0034
 IR Inten    --      0.1433                 0.0000                 0.0000

                      4                      5                      6
                      A                      A                      A
 Frequencies --     39.1667                41.3688                61.7476
 Red. masses --      5.5627                 7.2683                 5.4480
 Frc consts  --      0.0050                 0.0073                 0.0122
 IR Inten    --      0.1669                 0.0000                 0.0000

                      7                      8                      9
                      A                      A                      A
 Frequencies --     78.2586               116.8861               125.4842
 Red. masses --      5.9825                 5.4472                 7.6517
 Frc consts  --      0.0216                 0.0438                 0.0710
 IR Inten    --      1.4990                 0.5290                 0.0000

                     10                     11                     12
                      A                      A                      A
 Frequencies --    136.3884               169.7029               177.3490
 Red. masses --      5.3929                 7.1825                 5.9043
 Frc consts  --      0.0591                 0.1219                 0.1094
 IR Inten    --      0.0000                 0.0000                 0.0004

                     13                     14                     15
                      A                      A                      A
 Frequencies --    179.3249               208.9119               213.7624
 Red. masses --      9.1613                 5.1846                 6.7723
 Frc consts  --      0.1736                 0.1333                 0.1823
 IR Inten    --      0.0000                 0.0000                 1.5203

                     16                     17                     18
                      A                      A                      A
 Frequencies --    226.2455               235.8507               254.8952
 Red. masses --      5.1351                 6.4129                 5.2542
 Frc consts  --      0.1549                 0.2102                 0.2011
 IR Inten    --      0.0000                 1.6602                 0.0000

                     19                     20                     21
                      A                      A                      A
 Frequencies --    335.4675               342.5086               356.6031
 Red. masses --      6.2813                 6.3918                 5.4379
 Frc consts  --      0.4165                 0.4418                 0.4074
 IR Inten    --      0.0000                 0.0000                 4.0990

                     22                     23                     24
                      A                      A                      A
 Frequencies --    375.1236               397.4188               399.9044
 Red. masses --      7.4077                 7.8800                 9.5090
 Frc consts  --      0.6142                 0.7333                 0.8960
 IR Inten    --      1.4250                 0.0000                 0.0000

                     25                     26                     27
                      A                      A                      A
 Frequencies --    402.1107               408.6371               408.6414
 Red. masses --      8.2603                 2.8132                 2.8131
 Frc consts  --      0.7869                 0.2768                 0.2768
 IR Inten    --      0.6547                 0.0000                 0.0000

                     28                     29                     30
                      A                      A                      A
 Frequencies --    444.9736               462.2403               463.7744
 Red. masses --      8.8883                 3.9259                 3.9886
 Frc consts  --      1.0369                 0.4942                 0.5055
 IR Inten    --      0.0000                 0.0000                 0.8277

                     31                     32                     33
                      A                      A                      A
 Frequencies --    493.7214               507.8114               510.0326
 Red. masses --      8.3155                 4.0367                 7.7559
 Frc consts  --      1.1943                 0.6133                 1.1887
 IR Inten    --      0.0000                 0.0971                 5.3616

                     34                     35                     36
                      A                      A                      A
 Frequencies --    538.9361               550.1260               585.3081
 Red. masses --      6.4325                 4.4380                11.5110
 Frc consts  --      1.1008                 0.7913                 2.3235
 IR Inten    --      0.0000                 0.0000                 3.6601

                     37                     38                     39
                      A                      A                      A
 Frequencies --    613.7303               632.7921               632.8329
 Red. masses --      5.7126                 6.4862                 6.4695
 Frc consts  --      1.2678                 1.5302                 1.5265
 IR Inten    --      0.0000                 0.1263                 0.0000

                     40                     41                     42
                      A                      A                      A
 Frequencies --    657.2683               664.1073               675.5980
 Red. masses --      8.1396                 6.3151                 7.1452
 Frc consts  --      2.0718                 1.6410                 1.9215
 IR Inten    --      3.2235                 0.0000                11.8457

                     43                     44                     45
                      A                      A                      A
 Frequencies --    678.1750               684.8887               684.9366
 Red. masses --      5.8870                 5.5059                 7.1190
 Frc consts  --      1.5952                 1.5217                 1.9678
 IR Inten    --      0.0000                80.1932                 0.0017

                     46                     47                     48
                      A                      A                      A
 Frequencies --    686.9990               700.2254               710.1309
 Red. masses --      5.5382                 6.9285                 1.5562
 Frc consts  --      1.5400                 2.0015                 0.4624
 IR Inten    --      0.0000                 0.0000                 0.0204

                     49                     50                     51
                      A                      A                      A
 Frequencies --    710.1829               722.9084               728.4336
 Red. masses --      1.5670                 2.6729                 8.9516
 Frc consts  --      0.4656                 0.8230                 2.7985
 IR Inten    --    118.3418                51.6568                 0.0000

                     52                     53                     54
                      A                      A                      A
 Frequencies --    752.1447               784.7873               785.0183
 Red. masses --      9.2122                 2.3375                 2.3662
 Frc consts  --      3.0705                 0.8482                 0.8591
 IR Inten    --      0.0000                 5.7970                 0.0000

                     55                     56                     57
                      A                      A                      A
 Frequencies --    789.8102               799.1517               805.9862
 Red. masses --      6.2221                 1.3722                 1.7026
 Frc consts  --      2.2868                 0.5163                 0.6516
 IR Inten    --      0.0000                 0.0000                74.6334

                     58                     59                     60
                      A                      A                      A
 Frequencies --    827.3694               830.4656               834.6700
 Red. masses --     12.1303                11.3139                 8.3230
 Frc consts  --      4.8924                 4.5974                 3.4163
 IR Inten    --      8.2176                 0.0000               111.4414

                     61                     62                     63
                      A                      A                      A
 Frequencies --    868.1872               868.2071               909.9683
 Red. masses --      1.2477                 1.2476                 1.3916
 Frc consts  --      0.5541                 0.5541                 0.6789
 IR Inten    --      0.0000                 0.0000                 0.0000

                     64                     65                     66
                      A                      A                      A
 Frequencies --    914.1031               948.0909               948.6996
 Red. masses --      1.3847                10.7205                 1.3863
 Frc consts  --      0.6817                 5.6776                 0.7351
 IR Inten    --      0.0000                15.3756                 0.0084

                     67                     68                     69
                      A                      A                      A
 Frequencies --    948.7088               988.5987               990.2528
 Red. masses --      1.3865                 1.3044                 1.3066
 Frc consts  --      0.7352                 0.7511                 0.7549
 IR Inten    --      1.2378                 0.4878                 0.0000

                     70                     71                     72
                      A                      A                      A
 Frequencies --    998.4030               998.4271              1006.4395
 Red. masses --      1.3894                 1.3893                 7.5831
 Frc consts  --      0.8160                 0.8160                 4.5256
 IR Inten    --      0.0000                 0.0000                 3.6090

                     73                     74                     75
                      A                      A                      A
 Frequencies --   1010.4973              1010.5059              1013.7900
 Red. masses --      1.2998                 1.3000                 6.2290
 Frc consts  --      0.7820                 0.7821                 3.7719
 IR Inten    --      0.0000                 0.0083                 0.0000

                     76                     77                     78
                      A                      A                      A
 Frequencies --   1014.0897              1020.6189              1040.6123
 Red. masses --      6.2221                 8.4051                 4.1158
 Frc consts  --      3.7700                 5.1585                 2.6259
 IR Inten    --      0.0175                 0.0000                 0.0000

                     79                     80                     81
                      A                      A                      A
 Frequencies --   1042.9865              1068.3941              1086.1034
 Red. masses --      3.3204                 3.3075                 2.2043
 Frc consts  --      2.1281                 2.2244                 1.5320
 IR Inten    --    124.1874                 0.0000                 0.0000

                     82                     83                     84
                      A                      A                      A
 Frequencies --   1089.6723              1093.1275              1096.1140
 Red. masses --      2.9260                 2.2132                 1.7726
 Frc consts  --      2.0470                 1.5582                 1.2548
 IR Inten    --    170.9842                18.7431                 0.0000

                     85                     86                     87
                      A                      A                      A
 Frequencies --   1104.3990              1110.8248              1112.8027
 Red. masses --      2.8145                 4.5185                 2.2166
 Frc consts  --      2.0226                 3.2850                 1.6172
 IR Inten    --     15.6332                 0.0000                 0.8899

                     88                     89                     90
                      A                      A                      A
 Frequencies --   1154.6804              1167.2226              1191.3121
 Red. masses --      2.6283                 2.4598                 1.3361
 Frc consts  --      2.0646                 1.9745                 1.1172
 IR Inten    --    352.4534                 0.0000                66.8910

                     91                     92                     93
                      A                      A                      A
 Frequencies --   1192.4252              1192.4524              1210.8621
 Red. masses --      1.1334                 1.1319                 1.5675
 Frc consts  --      0.9495                 0.9483                 1.3541
 IR Inten    --      1.3124                 0.0005                 0.0000

                     94                     95                     96
                      A                      A                      A
 Frequencies --   1212.6154              1212.7789              1224.0116
 Red. masses --      1.1445                 1.1436                 6.4508
 Frc consts  --      0.9916                 0.9911                 5.6942
 IR Inten    --     23.0422                 0.0008                51.8853

                     97                     98                     99
                      A                      A                      A
 Frequencies --   1286.8654              1298.4602              1302.8127
 Red. masses --      2.4713                 3.0475                 6.3913
 Frc consts  --      2.4113                 3.0272                 6.3915
 IR Inten    --      0.0000                 0.0000                23.8000

                    100                    101                    102
                      A                      A                      A
 Frequencies --   1322.1340              1323.4190              1342.4212
 Red. masses --      4.0690                 3.8473                 3.9507
 Frc consts  --      4.1908                 3.9701                 4.1947
 IR Inten    --      2.2090                 0.0000              1772.1480

                    103                    104                    105
                      A                      A                      A
 Frequencies --   1356.2164              1356.2193              1366.6651
 Red. masses --      1.5421                 1.5389                 6.4149
 Frc consts  --      1.6712                 1.6677                 7.0593
 IR Inten    --      5.1183                 0.8584                 0.0000

                    106                    107                    108
                      A                      A                      A
 Frequencies --   1390.6226              1392.3704              1407.1669
 Red. masses --      3.9122                 8.1773                 4.8372
 Frc consts  --      4.4575                 9.3404                 5.6433
 IR Inten    --    401.7013                 0.0000                 0.0000

                    109                    110                    111
                      A                      A                      A
 Frequencies --   1414.1070              1414.8555              1426.3283
 Red. masses --      3.3249                 7.1259                 2.6659
 Frc consts  --      3.9174                 8.4045                 3.1954
 IR Inten    --      0.0000                 0.0000                 6.0371

                    112                    113                    114
                      A                      A                      A
 Frequencies --   1466.3989              1467.0397              1471.5870
 Red. masses --      2.1287                 2.1347                 2.8466
 Frc consts  --      2.6969                 2.7068                 3.6320
 IR Inten    --     20.6219                 0.0000                 0.1918

                    115                    116                    117
                      A                      A                      A
 Frequencies --   1517.3362              1521.1522              1530.8424
 Red. masses --     11.2300                 4.6400                 2.4241
 Frc consts  --     15.2333                 6.3258                 3.3470
 IR Inten    --     30.7100                28.0012                 0.0009

                    118                    119                    120
                      A                      A                      A
 Frequencies --   1531.0128              1543.6658              1591.9942
 Red. masses --      2.4785                 4.1300                 4.8158
 Frc consts  --      3.4229                 5.7984                 7.1912
 IR Inten    --     63.7438                 0.0000                 0.0000

                    121                    122                    123
                      A                      A                      A
 Frequencies --   1609.4029              1609.7829              1619.2727
 Red. masses --      5.0165                 4.9775                 7.6674
 Frc consts  --      7.6556                 7.5996                11.8451
 IR Inten    --      0.0000                 0.0004                 0.0000

                    124                    125                    126
                      A                      A                      A
 Frequencies --   1642.1841              1643.3386              1643.3909
 Red. masses --      6.3558                 5.3295                 5.3327
 Frc consts  --     10.0987                 8.4798                 8.4855
 IR Inten    --     53.6571                65.8137                 0.0506

                    127                    128                    129
                      A                      A                      A
 Frequencies --   1659.4879              1688.9990              3156.9634
 Red. masses --      9.9058                10.8652                 1.0854
 Frc consts  --     16.0727                18.2620                 6.3738
 IR Inten    --     68.0408                 0.0000                 1.0171

                    130                    131                    132
                      A                      A                      A
 Frequencies --   3156.9681              3164.3151              3164.3215
 Red. masses --      1.0854                 1.0874                 1.0874
 Frc consts  --      6.3738                 6.4153                 6.4153
 IR Inten    --      0.3647                 0.4346                 0.5284

                    133                    134                    135
                      A                      A                      A
 Frequencies --   3170.7643              3171.0056              3172.1521
 Red. masses --      1.0872                 1.0874                 1.0914
 Frc consts  --      6.4401                 6.4420                 6.4706
 IR Inten    --     18.8103                 0.0040                11.7952

                    136                    137                    138
                      A                      A                      A
 Frequencies --   3172.1565              3180.2504              3180.2587
 Red. masses --      1.0914                 1.0946                 1.0946
 Frc consts  --      6.4706                 6.5229                 6.5229
 IR Inten    --      5.4017                 8.1566                39.1894

                    139                    140                    141
                      A                      A                      A
 Frequencies --   3187.8203              3187.8504              3191.2013
 Red. masses --      1.0983                 1.0983                 1.0909
 Frc consts  --      6.5761                 6.5763                 6.5458
 IR Inten    --     40.9827                 0.2233                 0.0000

                    142                    143                    144
                      A                      A                      A
 Frequencies --   3191.2495              3197.6252              3197.7413
 Red. masses --      1.0910                 1.0960                 1.0959
 Frc consts  --      6.5462                 6.6026                 6.6024
 IR Inten    --      5.6240                15.8380                 0.0014

 - Thermochemistry -
 -------------------
 Temperature   298.150 Kelvin.  Pressure   1.00000 Atm.
 Atom     1 has atomic number  6 and mass  12.00000

 Molecular mass:   438.12347 amu.
 Principal axes and moments of inertia in atomic units:
                           1         2         3
     Eigenvalues --  4224.36908********************
           X            1.00000   0.00000  -0.00000
           Y           -0.00000   1.00000   0.00000
           Z            0.00000  -0.00000   1.00000
 This molecule is an asymmetric top.
 Rotational symmetry number  1.
 Warning -- assumption of classical behavior for rotation
           may cause significant error
 Rotational temperatures (Kelvin)      0.02050     0.00229     0.00206
 Rotational constants (GHZ):           0.42722     0.04782     0.04301
 Zero-point vibrational energy     979694.5 (Joules/Mol)
                                  234.15260 (Kcal/Mol)
 Warning -- explicit consideration of  37 degrees of freedom as
           vibrations may cause significant error
 Vibrational temperatures:     23.82    49.64    55.53    56.35    59.52
          (Kelvin)             88.84   112.60   168.17   180.54   196.23
                              244.16   255.17   258.01   300.58   307.56
                              325.52   339.34   366.74   482.66   492.79
                              513.07   539.72   571.80   575.37   578.55
                              587.94   587.94   640.22   665.06   667.27
                              710.35   730.63   733.82   775.41   791.51
                              842.13   883.02   910.45   910.51   945.66
                              955.50   972.03   975.74   985.40   985.47
                              988.44  1007.47  1021.72  1021.79  1040.10
                             1048.05  1082.17  1129.13  1129.47  1136.36
                             1149.80  1159.63  1190.40  1194.85  1200.90
                             1249.13  1249.16  1309.24  1315.19  1364.09
                             1364.97  1364.98  1422.37  1424.75  1436.48
                             1436.51  1448.04  1453.88  1453.89  1458.62
                             1459.05  1468.44  1497.21  1500.62  1537.18
                             1562.66  1567.80  1572.77  1577.06  1588.98
                             1598.23  1601.07  1661.33  1679.37  1714.03
                             1715.63  1715.67  1742.16  1744.68  1744.92
                             1761.08  1851.51  1868.19  1874.46  1902.26
                             1904.10  1931.44  1951.29  1951.30  1966.33
                             2000.80  2003.31  2024.60  2034.58  2035.66
                             2052.17  2109.82  2110.74  2117.29  2183.11
                             2188.60  2202.54  2202.79  2220.99  2290.52
                             2315.57  2316.12  2329.77  2362.74  2364.40
                             2364.47  2387.63  2430.09  4542.17  4542.17
                             4552.74  4552.75  4562.02  4562.37  4564.02
                             4564.03  4575.67  4575.68  4586.56  4586.61
                             4591.43  4591.50  4600.67  4600.84

 Zero-point correction=                           0.373146 (Hartree/Particle)
 Thermal correction to Energy=                    0.397199
 Thermal correction to Enthalpy=                  0.398143
 Thermal correction to Gibbs Free Energy=         0.317779
 Sum of electronic and zero-point Energies=          -1427.509028
 Sum of electronic and thermal Energies=             -1427.484975
 Sum of electronic and thermal Enthalpies=           -1427.484031
 Sum of electronic and thermal Free Energies=        -1427.564395

                     E (Thermal)             CV                S
                      KCal/Mol        Cal/Mol-Kelvin    Cal/Mol-Kelvin
 Total                  249.246             98.589            169.141
 Electronic               0.000              0.000              0.000
 Translational            0.889              2.981             44.122
 Rotational               0.889              2.981             37.146
 Vibrational            247.468             92.628             87.873
 Vibration     1          0.593              1.986              7.010
 Vibration     2          0.594              1.983              5.552
 Vibration     3          0.594              1.981              5.330
 Vibration     4          0.594              1.981              5.301
 Vibration     5          0.594              1.981              5.192
 Vibration     6          0.597              1.973              4.401
 Vibration     7          0.600              1.964              3.934
 Vibration     8          0.608              1.935              3.151
 Vibration     9          0.610              1.928              3.014
 Vibration    10          0.614              1.917              2.854
 Vibration    11          0.625              1.880              2.439
 Vibration    12          0.628              1.870              2.356
 Vibration    13          0.629              1.868              2.335
 Vibration    14          0.642              1.827              2.053
 Vibration    15          0.644              1.820              2.011
 Vibration    16          0.650              1.801              1.909
 Vibration    17          0.655              1.786              1.834
 Vibration    18          0.665              1.755              1.696
 Vibration    19          0.717              1.605              1.234
 Vibration    20          0.722              1.590              1.200
 Vibration    21          0.732              1.562              1.137
 Vibration    22          0.746              1.523              1.059
 Vibration    23          0.764              1.476              0.972
 Vibration    24          0.766              1.470              0.963
 Vibration    25          0.768              1.466              0.955
 Vibration    26          0.773              1.451              0.931
 Vibration    27          0.773              1.451              0.931
 Vibration    28          0.804              1.372              0.811
 Vibration    29          0.820              1.334              0.760
 Vibration    30          0.821              1.330              0.755
 Vibration    31          0.849              1.264              0.674
 Vibration    32          0.863              1.233              0.639
 Vibration    33          0.865              1.228              0.634
 Vibration    34          0.894              1.164              0.568
 Vibration    35          0.905              1.139              0.544
 Vibration    36          0.942              1.063              0.476
 Vibration    37          0.973              1.003              0.427

 Optimization completed.
    -- Stationary point found.
 Normal termination of Gaussian 16 at Fri Jul 31 22:38:16 2020.
