 Gaussian 16, Revision C.01,
 Gaussian 16:  ES64L-G16RevC.01  3-Jul-2019

 --------------------------------------------------------------------
 #P B3LYP/6-311++G(d,p) EmpiricalDispersion=GD3 freq(noraman) SCF=YQC
 --------------------------------------------------------------------

 -------------------------------------------------
 Restart from Pyrene_BoronicAcid_BoronateEster.log
 -------------------------------------------------
 Symbolic Z-matrix:
 Charge =  0 Multiplicity = 1

                         Standard orientation:
 ---------------------------------------------------------------------
 Center     Atomic      Atomic             Coordinates (Angstroms)
 Number     Number       Type             X           Y           Z
 ---------------------------------------------------------------------
      1          6           0       -0.000055    3.535039    0.000000
      2          6           0       -1.209039    2.824886    0.000000
      3          6           0       -1.235065    1.425956    0.000000
      4          6           0       -0.000046    0.711640    0.000000
      5          6           0        1.234976    1.425963    0.000000
      6          6           0        1.208938    2.824889    0.000000
      7          1           0       -2.147377    3.370011    0.000000
      8          1           0        2.147270    3.370026    0.000000
      9          6           0       -0.000046   -0.711639   -0.000000
     10          6           0       -1.235065   -1.425962   -0.000000
     11          6           0       -1.209032   -2.824890   -0.000000
     12          6           0       -0.000044   -3.535038   -0.000000
     13          6           0        1.208945   -2.824885   -0.000000
     14          6           0        1.234975   -1.425956   -0.000000
     15          1           0       -2.147364   -3.370026   -0.000000
     16          1           0        2.147280   -3.370015   -0.000000
     17          6           0        2.463536    0.679217    0.000000
     18          6           0        2.463535   -0.679205   -0.000000
     19          1           0        3.399138    1.228413    0.000000
     20          1           0        3.399137   -1.228402   -0.000000
     21          6           0       -2.463625    0.679207    0.000000
     22          6           0       -2.463626   -0.679215   -0.000000
     23          1           0       -3.399227    1.228404    0.000000
     24          1           0       -3.399228   -1.228412   -0.000000
     25          5           0       -0.000022    5.072663    0.000000
     26          8           0        1.146175    5.864852    0.000000
     27          8           0       -1.146177    5.864908    0.000000
     28          6           0        0.696917    7.167762    0.000000
     29          6           0       -0.696855    7.167798    0.000000
     30          6           0        1.429555    8.338827    0.000000
     31          6           0       -1.429434    8.338899    0.000000
     32          6           0        0.699023    9.534327    0.000000
     33          6           0       -0.698841    9.534362    0.000000
     34          1           0        2.511908    8.325299    0.000000
     35          1           0       -2.511788    8.325427    0.000000
     36          1           0        1.231064   10.478193    0.000000
     37          1           0       -1.230836   10.478255    0.000000
     38          5           0       -0.000013   -5.072663   -0.000000
     39          8           0       -1.146173   -5.864907   -0.000000
     40          8           0        1.146179   -5.864855   -0.000000
     41          6           0       -0.696854   -7.167796   -0.000000
     42          6           0        0.696917   -7.167765   -0.000000
     43          6           0       -1.429437   -8.338895   -0.000000
     44          6           0        1.429552   -8.338832   -0.000000
     45          6           0       -0.698848   -9.534361   -0.000000
     46          6           0        0.699016   -9.534330   -0.000000
     47          1           0       -2.511791   -8.325419   -0.000000
     48          1           0        2.511906   -8.325309   -0.000000
     49          1           0       -1.230844  -10.478252   -0.000000
     50          1           0        1.231055  -10.478197   -0.000000
 ---------------------------------------------------------------------

 SCF Done:  E(RB3LYP) =  -1427.88204415     a.u. after    6 cycles
 SCF Done:  E(RB3LYP) =  -1427.88206305     A.U. after    9 cycles

 The electronic state is 1-A'.
 Alpha  occ. eigenvalues --  -19.17171 -19.17170 -19.17168 -19.17168 -10.24327
 Alpha  occ. eigenvalues --  -10.24327 -10.24271 -10.24271 -10.19756 -10.19715
 Alpha  occ. eigenvalues --  -10.19597 -10.19596 -10.19589 -10.19588 -10.19119
 Alpha  occ. eigenvalues --  -10.19119 -10.19118 -10.19118 -10.18777 -10.18777
 Alpha  occ. eigenvalues --  -10.18776 -10.18776 -10.18760 -10.18760 -10.18718
 Alpha  occ. eigenvalues --  -10.18718 -10.18689 -10.18689 -10.18665 -10.18665
 Alpha  occ. eigenvalues --  -10.17556 -10.17555  -6.80040  -6.80040  -1.11921
 Alpha  occ. eigenvalues --   -1.11921  -1.04421  -1.04421  -0.90642  -0.86912
 Alpha  occ. eigenvalues --   -0.86832  -0.86262  -0.84354  -0.80965  -0.77937
 Alpha  occ. eigenvalues --   -0.76699  -0.76685  -0.76169  -0.75495  -0.74711
 Alpha  occ. eigenvalues --   -0.73655  -0.72259  -0.64966  -0.64357  -0.63684
 Alpha  occ. eigenvalues --   -0.63471  -0.63230  -0.63014  -0.62193  -0.61777
 Alpha  occ. eigenvalues --   -0.59659  -0.58274  -0.54271  -0.53546  -0.53506
 Alpha  occ. eigenvalues --   -0.53476  -0.52703  -0.52530  -0.52296  -0.50843
 Alpha  occ. eigenvalues --   -0.50222  -0.48119  -0.47841  -0.47838  -0.47172
 Alpha  occ. eigenvalues --   -0.45984  -0.45925  -0.45678  -0.44687  -0.44523
 Alpha  occ. eigenvalues --   -0.44091  -0.42538  -0.42122  -0.41929  -0.41101
 Alpha  occ. eigenvalues --   -0.41084  -0.40824  -0.40116  -0.38904  -0.38862
 Alpha  occ. eigenvalues --   -0.38587  -0.38587  -0.38363  -0.38005  -0.37838
 Alpha  occ. eigenvalues --   -0.36998  -0.36401  -0.36234  -0.35962  -0.35820
 Alpha  occ. eigenvalues --   -0.35787  -0.35577  -0.33594  -0.33168  -0.31538
 Alpha  occ. eigenvalues --   -0.28854  -0.27092  -0.26316  -0.26310  -0.26264
 Alpha  occ. eigenvalues --   -0.24420  -0.23398  -0.21331
 Alpha virt. eigenvalues --   -0.07207  -0.07140  -0.03234  -0.02506  -0.02278
 Alpha virt. eigenvalues --   -0.01093  -0.00942  -0.00885  -0.00783  -0.00642
 Alpha virt. eigenvalues --   -0.00506  -0.00283   0.00097   0.00420   0.00858

 Mulliken charges:
               1
     1  C   -0.709106
     2  C   -0.181916
     3  C    0.495486
     4  C   -0.018532
     5  C    0.495464
     6  C   -0.181890
     7  H    0.208586
     8  H    0.208595
     9  C   -0.018530
    10  C    0.495486
    11  C   -0.181915
    12  C   -0.709106
    13  C   -0.181893
    14  C    0.495462
    15  H    0.208588
    16  H    0.208594
    17  C   -0.388934
    18  C   -0.388933
    19  H    0.136743
    20  H    0.136743
    21  C   -0.388927
    22  C   -0.388929
    23  H    0.136743
    24  H    0.136743
    25  B    0.629051
    26  O   -0.162678
    27  O   -0.162697
    28  C    0.211452
    29  C    0.211443
    30  C   -0.339257
    31  C   -0.339255
    32  C   -0.275951
    33  C   -0.275973
    34  H    0.177214
    35  H    0.177215
    36  H    0.168562
    37  H    0.168561
    38  B    0.629052
    39  O   -0.162697
    40  O   -0.162679
    41  C    0.211445
    42  C    0.211450
    43  C   -0.339255
    44  C   -0.339257
    45  C   -0.275970
    46  C   -0.275953
    47  H    0.177215
    48  H    0.177215
    49  H    0.168561
    50  H    0.168562
 Sum of Mulliken charges =  -0.00000

 Dipole moment (field-independent basis, Debye):
    X=              0.0001    Y=              0.0000    Z=              0.0000  Tot=              0.0001
 Quadrupole moment (field-independent basis, Debye-Ang):
   XX=           -176.0972   YY=           -154.9300   ZZ=           -202.6541
   XY=             -0.0000   XZ=             -0.0000   YZ=             -0.0000

  Exact polarizability:     352.983      -0.000     740.232       0.000       0.000     169.607
 Approx polarizability:     668.027      -0.000     983.687       0.000       0.000     281.816

                      1                      2                      3
                     A"                     A"                     A'
 Frequencies --     13.5404                28.6492                28.9511
 Red. masses --      6.7300                 5.2382                 6.3360
 Frc consts  --      0.0007                 0.0025                 0.0031
 IR Inten    --      0.1291                 0.0000                 0.1129

                      4                      5                      6
                     A"                     A"                     A'
 Frequencies --     36.3704                37.0068                56.4082
 Red. masses --      6.8907                 5.1156                 6.1419
 Frc consts  --      0.0054                 0.0041                 0.0115
 IR Inten    --      0.0000                 0.0000                 0.0000

                      7                      8                      9
                     A"                     A"                     A'
 Frequencies --     72.0246               123.6585               144.4941
 Red. masses --      7.6108                 7.3246                 8.8241
 Frc consts  --      0.0233                 0.0660                 0.1085
 IR Inten    --      0.7576                 0.0000                 0.0000

                     10                     11                     12
                     A"                     A"                     A'
 Frequencies --    156.6459               173.9502               197.9068
 Red. masses --      4.2257                 5.1570                 7.2466
 Frc consts  --      0.0611                 0.0919                 0.1672
 IR Inten    --      0.0000                 0.0938                 0.4281

                     13                     14                     15
                     A"                     A"                     A"
 Frequencies --    228.1457               241.1255               243.4170
 Red. masses --      4.9251                 5.7951                 6.7520
 Frc consts  --      0.1510                 0.1985                 0.2357
 IR Inten    --      9.0901                 0.0000                 0.0000

                     16                     17                     18
                     A'                     A"                     A'
 Frequencies --    245.5925               254.2976               259.7500
 Red. masses --      7.8132                 3.7831                 5.9932
 Frc consts  --      0.2777                 0.1441                 0.2382
 IR Inten    --      0.1247                 0.0000                 0.0000

                     19                     20                     21
                     A"                     A"                     A"
 Frequencies --    278.0400               326.4056               362.2207
 Red. masses --      6.7355                 6.3734                 6.1368
 Frc consts  --      0.3068                 0.4001                 0.4744
 IR Inten    --      0.0000                 0.3351                 0.0000

                     22                     23                     24
                     A"                     A'                     A"
 Frequencies --    399.8516               408.8978               430.1954
 Red. masses --      3.4545                 5.5360                 3.0909
 Frc consts  --      0.3254                 0.5454                 0.3370
 IR Inten    --      0.0000                 2.5251                10.2560

                     25                     26                     27
                     A"                     A'                     A'
 Frequencies --    433.2914               466.3416               480.3144
 Red. masses --      3.1620                 6.7223                 8.4616
 Frc consts  --      0.3498                 0.8613                 1.1501
 IR Inten    --      0.0000                 0.0000                 0.0000

                     28                     29                     30
                     A'                     A'                     A"
 Frequencies --    481.5243               510.4870               512.9343
 Red. masses --      6.8860                 5.0498                 4.1084
 Frc consts  --      0.9407                 0.7753                 0.6369
 IR Inten    --      0.0000                 9.0097                 0.0000

                     31                     32                     33
                     A'                     A"                     A"
 Frequencies --    524.3108               535.2976               540.6607
 Red. masses --      7.0629                 2.9835                 5.3610
 Frc consts  --      1.1440                 0.5037                 0.9233
 IR Inten    --      0.1649                 0.0000                 0.7757

                     34                     35                     36
                     A'                     A'                     A'
 Frequencies --    553.9209               570.4872               575.4800
 Red. masses --      5.1660                 8.0515                 7.8083
 Frc consts  --      0.9339                 1.5439                 1.5236
 IR Inten    --      0.0000                 0.0012                 0.0000

                     37                     38                     39
                     A'                     A"                     A"
 Frequencies --    577.4144               581.2200               581.2903
 Red. masses --      7.2955                 4.0492                 4.0488
 Frc consts  --      1.4331                 0.8059                 0.8061
 IR Inten    --      2.1125                 0.0000                 0.0000

                     40                     41                     42
                     A"                     A'                     A'
 Frequencies --    595.1900               621.8959               622.9480
 Red. masses --      4.5573                 6.5108                 7.2753
 Frc consts  --      0.9512                 1.4836                 1.6634
 IR Inten    --      0.0000                 0.0000                 0.0000

                     43                     44                     45
                     A'                     A"                     A"
 Frequencies --    623.6287               685.3400               699.4922
 Red. masses --      7.2371                 4.3658                 4.4522
 Frc consts  --      1.6583                 1.2082                 1.2835
 IR Inten    --      0.7078                 0.0000                 0.1912

                     46                     47                     48
                     A"                     A"                     A'
 Frequencies --    720.3888               733.5791               738.6165
 Red. masses --      4.8626                 3.0675                 8.7149
 Frc consts  --      1.4868                 0.9726                 2.8013
 IR Inten    --      0.0000                31.9121                 2.5022

                     49                     50                     51
                     A"                     A"                     A"
 Frequencies --    752.2782               752.3210               752.8864
 Red. masses --      1.2975                 1.3002                 4.8195
 Frc consts  --      0.4326                 0.4336                 1.6096
 IR Inten    --      0.0939               213.6605                 0.0001

                     52                     53                     54
                     A"                     A'                     A'
 Frequencies --    752.9786               779.4110               786.8744
 Red. masses --      4.8155                 7.5420                 5.9399
 Frc consts  --      1.6086                 2.6994                 2.1669
 IR Inten    --      0.0000                 0.0000                 0.0000

                     55                     56                     57
                     A"                     A'                     A"
 Frequencies --    789.2398               813.6404               815.7307
 Red. masses --      6.5648                 5.5623                 1.5172
 Frc consts  --      2.4093                 2.1695                 0.5948
 IR Inten    --      0.0000                59.8413                33.0150

                     58                     59                     60
                     A"                     A'                     A'
 Frequencies --    817.4391               827.4439               827.8739
 Red. masses --      1.3901                 7.4245                 7.5706
 Frc consts  --      0.5473                 2.9950                 3.0571
 IR Inten    --      0.0000                 0.0000                63.4661

                     61                     62                     63
                     A"                     A"                     A'
 Frequencies --    857.0711               857.0811               877.0633
 Red. masses --      1.4237                 1.4240                 7.0990
 Frc consts  --      0.6162                 0.6163                 3.2174
 IR Inten    --      0.0000                 0.0000                 9.2581

                     64                     65                     66
                     A'                     A'                     A'
 Frequencies --    877.4380               912.1382               912.1586
 Red. masses --      7.0940                 6.8072                 9.0354
 Frc consts  --      3.2179                 3.3369                 4.4293
 IR Inten    --      0.0000               108.2182                 0.0536

                     67                     68                     69
                     A"                     A"                     A"
 Frequencies --    913.0703               920.5175               926.6250
 Red. masses --      1.4999                 1.6004                 1.3913
 Frc consts  --      0.7367                 0.7990                 0.7038
 IR Inten    --      0.0000                55.5496                 0.0000

                     70                     71                     72
                     A"                     A"                     A"
 Frequencies --    931.4856               931.4991               938.3527
 Red. masses --      1.3750                 1.3749                 1.4493
 Frc consts  --      0.7029                 0.7029                 0.7519
 IR Inten    --      0.0012                 9.0768                 0.0000

                     73                     74                     75
                     A"                     A"                     A"
 Frequencies --    966.3159               966.3699               986.4493
 Red. masses --      1.2483                 1.2485                 1.3146
 Frc consts  --      0.6868                 0.6870                 0.7537
 IR Inten    --      0.0000                 0.0000                 0.0000

                     76                     77                     78
                     A"                     A'                     A'
 Frequencies --    989.0567              1006.6174              1012.1348
 Red. masses --      1.3069                 6.2467                 7.5475
 Frc consts  --      0.7532                 3.7293                 4.5554
 IR Inten    --      0.0000                 0.6147                24.7695

                     79                     80                     81
                     A'                     A'                     A'
 Frequencies --   1023.6426              1023.6647              1098.6891
 Red. masses --      1.9714                 1.9688                 3.6070
 Frc consts  --      1.2171                 1.2155                 2.5653
 IR Inten    --      0.0002                28.8529                 0.0000

                     82                     83                     84
                     A'                     A'                     A'
 Frequencies --   1099.0946              1115.9204              1137.9302
 Red. masses --      3.5523                 2.6018                 2.1320
 Frc consts  --      2.5283                 1.9089                 1.6265
 IR Inten    --      4.1920                 0.0000                92.5167

                     85                     86                     87
                     A'                     A'                     A'
 Frequencies --   1139.6227              1148.5278              1149.1121
 Red. masses --      2.6490                 1.7936                 1.8372
 Frc consts  --      2.0270                 1.3940                 1.4293
 IR Inten    --      0.0000                53.5993                 0.0000

                     88                     89                     90
                     A'                     A'                     A'
 Frequencies --   1177.3934              1181.6228              1181.8648
 Red. masses --      1.3567                 1.1530                 1.1652
 Frc consts  --      1.1081                 0.9485                 0.9589
 IR Inten    --      0.0000                25.9136                 0.0001

                     91                     92                     93
                     A'                     A'                     A'
 Frequencies --   1187.4544              1237.9120              1250.5920
 Red. masses --      1.4444                 2.0013                 8.2337
 Frc consts  --      1.2000                 1.8069                 7.5871
 IR Inten    --      0.0651                 0.0103                 0.0000

                     94                     95                     96
                     A'                     A'                     A'
 Frequencies --   1252.1754              1255.1726              1256.3429
 Red. masses --      5.5010                 2.5161                 4.5233
 Frc consts  --      5.0819                 2.3355                 4.2065
 IR Inten    --    124.5458                 0.0002              1176.7146

                     97                     98                     99
                     A'                     A'                     A'
 Frequencies --   1257.5399              1259.2383              1277.5156
 Red. masses --      1.7800                 4.3278                 1.5111
 Frc consts  --      1.6585                 4.0432                 1.4530
 IR Inten    --    456.5004                 0.0000                 0.0000

                    100                    101                    102
                     A'                     A'                     A'
 Frequencies --   1300.0515              1300.0545              1343.6742
 Red. masses --      1.5108                 1.5113                 3.9769
 Frc consts  --      1.5045                 1.5049                 4.2304
 IR Inten    --      0.0055                 6.0022                 3.0528

                    103                    104                    105
                     A'                     A'                     A'
 Frequencies --   1354.8634              1357.5122              1367.2469
 Red. masses --      3.9680                 3.7605                 4.3287
 Frc consts  --      4.2915                 4.0830                 4.7676
 IR Inten    --      0.0000              1229.4430                 0.0000

                    106                    107                    108
                     A'                     A'                     A'
 Frequencies --   1394.6414              1397.5275              1400.4502
 Red. masses --      2.3399                 3.3264                 5.1809
 Frc consts  --      2.6814                 3.8277                 5.9867
 IR Inten    --      0.0001               497.0417                 0.0001

                    109                    110                    111
                     A'                     A'                     A'
 Frequencies --   1401.7203              1408.7737              1450.1076
 Red. masses --      4.8259                 2.7521                 7.6574
 Frc consts  --      5.5867                 3.2181                 9.4871
 IR Inten    --      0.0000                27.9120                 0.0000

                    112                    113                    114
                     A'                     A'                     A'
 Frequencies --   1473.3182              1486.4992              1489.4855
 Red. masses --      5.1877                 6.4144                 3.1875
 Frc consts  --      6.6346                 8.3509                 4.1665
 IR Inten    --     13.8822                 0.0132                 0.0000

                    115                    116                    117
                     A'                     A'                     A'
 Frequencies --   1494.9065              1497.2744              1497.3014
 Red. masses --      2.7368                 2.4641                 2.4672
 Frc consts  --      3.6035                 3.2547                 3.2589
 IR Inten    --    553.4265                 0.0020                 3.3631

                    118                    119                    120
                     A'                     A'                     A'
 Frequencies --   1499.0878              1505.6217              1613.1259
 Red. masses --      3.0845                 3.1875                 4.3617
 Frc consts  --      4.0840                 4.2573                 6.6871
 IR Inten    --      0.0000                25.0719                 0.0000

                    121                    122                    123
                     A'                     A'                     A'
 Frequencies --   1613.1527              1629.0125              1642.3948
 Red. masses --      7.4694                 6.1211                 5.5240
 Frc consts  --     11.4521                 9.5703                 8.7793
 IR Inten    --      0.0000                 4.2055                48.4768

                    124                    125                    126
                     A'                     A'                     A'
 Frequencies --   1644.7396              1644.7707              1654.0861
 Red. masses --      7.4528                 7.4662                 7.3068
 Frc consts  --     11.8786                11.9003                11.7786
 IR Inten    --      5.4750                 0.0011                 0.0000

                    127                    128                    129
                     A'                     A'                     A'
 Frequencies --   1654.2699              1667.7576              3156.9665
 Red. masses --      7.2473                 6.8785                 1.0866
 Frc consts  --     11.6852                11.2722                 6.3803
 IR Inten    --     11.9891                 0.0000                 0.0001

                    130                    131                    132
                     A'                     A'                     A'
 Frequencies --   3157.1167              3164.5655              3165.2872
 Red. masses --      1.0865                 1.0900                 1.0897
 Frc consts  --      6.3807                 6.4314                 6.4325
 IR Inten    --      1.1047                 8.3525                 0.0000

                    133                    134                    135
                     A'                     A'                     A'
 Frequencies --   3165.6770              3166.2178              3171.8251
 Red. masses --      1.0914                 1.0910                 1.0867
 Frc consts  --      6.4439                 6.4442                 6.4414
 IR Inten    --      0.0000                 1.6130                 1.7063

                    136                    137                    138
                     A'                     A'                     A'
 Frequencies --   3171.8306              3176.4070              3176.8595
 Red. masses --      1.0867                 1.0961                 1.0958
 Frc consts  --      6.4415                 6.5157                 6.5161
 IR Inten    --      1.4930                44.0373                 0.0003

                    139                    140                    141
                     A'                     A'                     A'
 Frequencies --   3186.3770              3186.3842              3200.4428
 Red. masses --      1.0913                 1.0913                 1.0941
 Frc consts  --      6.5280                 6.5280                 6.6028
 IR Inten    --     24.9530                 1.9109                 4.0416

                    142                    143                    144
                     A'                     A'                     A'
 Frequencies --   3200.4467              3203.8167              3203.8267
 Red. masses --      1.0941                 1.0963                 1.0963
 Frc consts  --      6.6028                 6.6302                 6.6303
 IR Inten    --      7.6576                 9.9854                 0.0890

 - Thermochemistry -
 -------------------
 Temperature   298.150 Kelvin.  Pressure   1.00000 Atm.
 Atom     1 has atomic number  6 and mass  12.00000

 Molecular mass:   438.12347 amu.
 Principal axes and moments of inertia in atomic units:
                           1         2         3
     Eigenvalues --  2715.09225********************
           X            0.00000   1.00000   0.00000
           Y            1.00000  -0.00000   0.00000
           Z            0.00000   0.00000   1.00000
 This molecule is an asymmetric top.
 Rotational symmetry number  1.
 Warning -- assumption of classical behavior for rotation
           may cause significant error
 Rotational temperatures (Kelvin)      0.03190     0.00167     0.00159
 Rotational constants (GHZ):           0.66471     0.03480     0.03307
 Zero-point vibrational energy     979213.2 (Joules/Mol)
                                  234.03757 (Kcal/Mol)
 Warning -- explicit consideration of  40 degrees of freedom as
           vibrations may cause significant error
 Vibrational temperatures:     19.48    41.22    41.65    52.33    53.24
          (Kelvin)             81.16   103.63   177.92   207.89   225.38
                              250.28   284.74   328.25   346.93   350.22
                              353.35   365.88   373.72   400.04   469.62
                              521.15   575.30   588.31   618.96   623.41
                              670.96   691.07   692.81   734.48   738.00
                              754.37   770.17   777.89   796.97   820.80
                              827.99   830.77   836.25   836.35   856.35
                              894.77   896.28   897.26   986.05  1006.41
                             1036.48  1055.46  1062.70  1082.36  1082.42
                             1083.24  1083.37  1121.40  1132.14  1135.54
                             1170.65  1173.65  1176.11  1190.51  1191.13
                             1233.13  1233.15  1261.90  1262.44  1312.36
                             1312.39  1313.70  1324.42  1333.21  1340.20
                             1340.22  1350.08  1390.31  1390.39  1419.28
                             1423.03  1448.30  1456.24  1472.79  1472.83
                             1580.77  1581.35  1605.56  1637.23  1639.66
                             1652.48  1653.32  1694.01  1700.09  1700.44
                             1708.48  1781.08  1799.32  1801.60  1805.91
                             1807.60  1809.32  1811.76  1838.06  1870.48
                             1870.49  1933.25  1949.35  1953.16  1967.16
                             2006.58  2010.73  2014.94  2016.76  2026.91
                             2086.38  2119.78  2138.74  2143.04  2150.84
                             2154.24  2154.28  2156.85  2166.25  2320.93
                             2320.97  2343.79  2363.04  2366.41  2366.46
                             2379.86  2380.13  2399.53  4542.17  4542.39
                             4553.10  4554.14  4554.70  4555.48  4563.55
                             4563.56  4570.14  4570.79  4584.49  4584.50
                             4604.72  4604.73  4609.58  4609.59

 Zero-point correction=                           0.372963 (Hartree/Particle)
 Thermal correction to Energy=                    0.396642
 Thermal correction to Enthalpy=                  0.397586
 Thermal correction to Gibbs Free Energy=         0.317395
 Sum of electronic and zero-point Energies=          -1427.509100
 Sum of electronic and thermal Energies=             -1427.485421
 Sum of electronic and thermal Enthalpies=           -1427.484477
 Sum of electronic and thermal Free Energies=        -1427.564668

                     E (Thermal)             CV                S
                      KCal/Mol        Cal/Mol-Kelvin    Cal/Mol-Kelvin
 Total                  248.896             98.429            168.776
 Electronic               0.000              0.000              0.000
 Translational            0.889              2.981             44.122
 Rotational               0.889              2.981             37.283
 Vibrational            247.119             92.467             87.370
 Vibration     1          0.593              1.986              7.409
 Vibration     2          0.593              1.984              5.921
 Vibration     3          0.593              1.984              5.900
 Vibration     4          0.594              1.982              5.448
 Vibration     5          0.594              1.982              5.413
 Vibration     6          0.596              1.975              4.579
 Vibration     7          0.598              1.967              4.097
 Vibration     8          0.610              1.929              3.042
 Vibration     9          0.616              1.909              2.743
 Vibration    10          0.620              1.895              2.590
 Vibration    11          0.627              1.875              2.392
 Vibration    12          0.637              1.843              2.152
 Vibration    13          0.651              1.798              1.893
 Vibration    14          0.658              1.777              1.795
 Vibration    15          0.659              1.774              1.778
 Vibration    16          0.660              1.770              1.762
 Vibration    17          0.665              1.756              1.701
 Vibration    18          0.668              1.746              1.663
 Vibration    19          0.679              1.714              1.546
 Vibration    20          0.710              1.623              1.278
 Vibration    21          0.736              1.550              1.113
 Vibration    22          0.766              1.470              0.963
 Vibration    23          0.773              1.451              0.931
 Vibration    24          0.791              1.404              0.858
 Vibration    25          0.794              1.398              0.848
 Vibration    26          0.824              1.325              0.748
 Vibration    27          0.837              1.294              0.709
 Vibration    28          0.838              1.291              0.706
 Vibration    29          0.866              1.227              0.632
 Vibration    30          0.868              1.221              0.627
 Vibration    31          0.879              1.196              0.600
 Vibration    32          0.890              1.172              0.575
 Vibration    33          0.896              1.160              0.564
 Vibration    34          0.909              1.131              0.536
 Vibration    35          0.927              1.095              0.503
 Vibration    36          0.932              1.084              0.494
 Vibration    37          0.934              1.080              0.490
 Vibration    38          0.938              1.072              0.483
 Vibration    39          0.938              1.072              0.483
 Vibration    40          0.953              1.042              0.458

 Optimization completed.
    -- Stationary point found.
 Normal termination of Gaussian 16 at Sat Aug 15 08:15:04 2020.
