 Gaussian 16, Revision C.01,
 Gaussian 16:  ES64L-G16RevC.01  3-Jul-2019

 --------------------------------------------------------------------
 #P B3LYP/6-311++G(d,p) EmpiricalDispersion=GD3 freq(noraman) SCF=YQC
 --------------------------------------------------------------------

 ----------------------------------------
 Restart from Pyrene_Nitrile_Triazine.log
 ----------------------------------------
 Symbolic Z-matrix:
 Charge =  0 Multiplicity = 1

                         Standard orientation:
 ---------------------------------------------------------------------
 Center     Atomic      Atomic             Coordinates (Angstroms)
 Number     Number       Type             X           Y           Z
 ---------------------------------------------------------------------
      1          6           0        0.000003   -3.523399    0.000000
      2          6           0        1.212415   -2.823085    0.000000
      3          6           0        1.234187   -1.425744    0.000000
      4          6           0        0.000003   -0.710645    0.000000
      5          6           0       -1.234182   -1.425745    0.000000
      6          6           0       -1.212410   -2.823085    0.000000
      7          1           0        2.141347   -3.378692    0.000000
      8          1           0       -2.141341   -3.378695    0.000000
      9          6           0        0.000003    0.710645    0.000000
     10          6           0        1.234187    1.425745    0.000000
     11          6           0        1.212415    2.823086    0.000000
     12          6           0        0.000003    3.523399    0.000000
     13          6           0       -1.212410    2.823085    0.000000
     14          6           0       -1.234182    1.425745    0.000000
     15          1           0        2.141346    3.378694    0.000000
     16          1           0       -2.141341    3.378694    0.000000
     17          6           0       -2.463338   -0.679241    0.000000
     18          6           0       -2.463338    0.679241    0.000000
     19          1           0       -3.398542   -1.228642    0.000000
     20          1           0       -3.398542    1.228643    0.000000
     21          6           0        2.463343   -0.679241    0.000000
     22          6           0        2.463343    0.679242    0.000000
     23          1           0        3.398547   -1.228643    0.000000
     24          1           0        3.398547    1.228643    0.000000
     25          6           0        0.000004   -5.002802    0.000000
     26          7           0        1.184161   -5.641382    0.000000
     27          6           0        1.117675   -6.968852    0.000000
     28          7           0       -1.184179   -5.641369    0.000000
     29          6           0       -1.117717   -6.968822    0.000000
     30          7           0       -0.000019   -7.700294    0.000000
     31          1           0       -2.060550   -7.508908    0.000000
     32          1           0        2.060509   -7.508936    0.000000
     33          6           0       -0.000003    5.002802    0.000000
     34          7           0       -1.184162    5.641373    0.000000
     35          6           0       -1.117686    6.968843    0.000000
     36          7           0        1.184178    5.641377    0.000000
     37          6           0        1.117706    6.968830    0.000000
     38          7           0        0.000003    7.700293    0.000000
     39          1           0        2.060536    7.508922    0.000000
     40          1           0       -2.060524    7.508921    0.000000
 ---------------------------------------------------------------------

 SCF Done:  E(RB3LYP) =  -1174.44977015     a.u. after    7 cycles
 SCF Done:  E(RB3LYP) =  -1174.44977525     A.U. after    8 cycles

 The electronic state is 1-A'.
 Alpha  occ. eigenvalues --  -14.33993 -14.33993 -14.33991 -14.33991 -14.33852
 Alpha  occ. eigenvalues --  -14.33852 -10.28121 -10.28121 -10.26973 -10.26973
 Alpha  occ. eigenvalues --  -10.26973 -10.26973 -10.20519 -10.20519 -10.20479
 Alpha  occ. eigenvalues --  -10.20441 -10.20381 -10.20381 -10.20370 -10.20364
 Alpha  occ. eigenvalues --  -10.19398 -10.19398 -10.19373 -10.19373 -10.19372
 Alpha  occ. eigenvalues --  -10.19371 -10.19327 -10.19327  -1.04366  -1.04366
 Alpha  occ. eigenvalues --   -0.92748  -0.92612  -0.91984  -0.91984  -0.91229
 Alpha  occ. eigenvalues --   -0.87306  -0.85048  -0.82593  -0.78751  -0.77359
 Alpha  occ. eigenvalues --   -0.76919  -0.73343  -0.71585  -0.70389  -0.70003
 Alpha  occ. eigenvalues --   -0.68655  -0.64745  -0.64289  -0.63595  -0.62969
 Alpha  occ. eigenvalues --   -0.58492  -0.57173  -0.56833  -0.55851  -0.53383
 Alpha  occ. eigenvalues --   -0.53021  -0.52368  -0.51888  -0.50580  -0.47586
 Alpha  occ. eigenvalues --   -0.47223  -0.47196  -0.46080  -0.45630  -0.45507
 Alpha  occ. eigenvalues --   -0.44564  -0.43866  -0.43749  -0.43299  -0.42177
 Alpha  occ. eigenvalues --   -0.41633  -0.40871  -0.39676  -0.39373  -0.38812
 Alpha  occ. eigenvalues --   -0.38788  -0.38389  -0.36641  -0.36254  -0.35737
 Alpha  occ. eigenvalues --   -0.34618  -0.34601  -0.34425  -0.33994  -0.30181
 Alpha  occ. eigenvalues --   -0.29587  -0.28914  -0.28905  -0.28295  -0.28247
 Alpha  occ. eigenvalues --   -0.27700  -0.25043  -0.22046
 Alpha virt. eigenvalues --   -0.09998  -0.08222  -0.07437  -0.06740  -0.06233
 Alpha virt. eigenvalues --   -0.03115  -0.01426  -0.01085  -0.00993  -0.00382
 Alpha virt. eigenvalues --   -0.00129   0.00445   0.01032   0.01703   0.02089

 Mulliken charges:
               1
     1  C    0.894989
     2  C   -0.532778
     3  C    0.230057
     4  C   -0.432533
     5  C    0.230050
     6  C   -0.532789
     7  H    0.180479
     8  H    0.180481
     9  C   -0.432533
    10  C    0.230049
    11  C   -0.532784
    12  C    0.894987
    13  C   -0.532782
    14  C    0.230058
    15  H    0.180480
    16  H    0.180480
    17  C   -0.379749
    18  C   -0.379750
    19  H    0.149536
    20  H    0.149536
    21  C   -0.379749
    22  C   -0.379747
    23  H    0.149537
    24  H    0.149537
    25  C   -0.235833
    26  N    0.014619
    27  C    0.088022
    28  N    0.014621
    29  C    0.088031
    30  N   -0.138614
    31  H    0.205813
    32  H    0.205810
    33  C   -0.235833
    34  N    0.014621
    35  C    0.088022
    36  N    0.014620
    37  C    0.088030
    38  N   -0.138614
    39  H    0.205813
    40  H    0.205810
 Sum of Mulliken charges =  -0.00000

 Dipole moment (field-independent basis, Debye):
    X=             -0.0000    Y=              0.0000    Z=              0.0000  Tot=              0.0000
 Quadrupole moment (field-independent basis, Debye-Ang):
   XX=           -144.6584   YY=           -172.5990   ZZ=           -163.5680
   XY=              0.0001   XZ=              0.0000   YZ=              0.0000

  Exact polarizability:     294.337      -0.000     643.864       0.000       0.000     133.394
 Approx polarizability:     564.383      -0.001     930.556       0.000       0.000     225.495

                      1                      2                      3
                     A"                     A"                     A"
 Frequencies --     22.5534                34.0418                39.7840
 Red. masses --      8.2354                 5.5490                 5.4180
 Frc consts  --      0.0025                 0.0038                 0.0051
 IR Inten    --      0.0072                 0.0000                 0.0000

                      4                      5                      6
                     A"                     A'                     A"
 Frequencies --     59.2723                69.8013               106.0827
 Red. masses --      8.0239                 7.4416                 9.0024
 Frc consts  --      0.0166                 0.0214                 0.0597
 IR Inten    --      0.0000                 0.0356                 0.1387

                      7                      8                      9
                     A'                     A"                     A"
 Frequencies --    123.0747               158.0750               166.0259
 Red. masses --      6.3226                 4.2953                10.4671
 Frc consts  --      0.0564                 0.0632                 0.1700
 IR Inten    --      0.0000                 0.0000                 0.0000

                     10                     11                     12
                     A'                     A"                     A"
 Frequencies --    191.8326               196.1725               254.2523
 Red. masses --     10.1254                 4.6433                 6.6069
 Frc consts  --      0.2195                 0.1053                 0.2516
 IR Inten    --      0.0000                 4.5754                 1.6733

                     13                     14                     15
                     A"                     A'                     A'
 Frequencies --    254.7052               285.4777               311.1864
 Red. masses --      3.5273                 7.3531                 8.8239
 Frc consts  --      0.1348                 0.3531                 0.5034
 IR Inten    --      0.0000                 0.8384                 0.4228

                     16                     17                     18
                     A"                     A"                     A"
 Frequencies --    340.9235               354.4137               354.4161
 Red. masses --      6.5149                 3.4365                 3.4384
 Frc consts  --      0.4461                 0.2543                 0.2545
 IR Inten    --      0.0000                 0.0000                 0.0000

                     19                     20                     21
                     A'                     A"                     A'
 Frequencies --    375.2687               400.4884               475.6807
 Red. masses --      6.4056                 3.5258                 7.8715
 Frc consts  --      0.5315                 0.3332                 1.0494
 IR Inten    --      0.0000                 0.0000                 0.0000

                     22                     23                     24
                     A"                     A"                     A'
 Frequencies --    490.4389               506.9916               511.8880
 Red. masses --      3.8176                 4.1287                 8.9112
 Frc consts  --      0.5410                 0.6253                 1.3757
 IR Inten    --      7.2552                 0.0000                 0.0000

                     25                     26                     27
                     A'                     A'                     A"
 Frequencies --    514.6310               516.0445               524.9110
 Red. masses --      5.0334                 5.9208                 3.3523
 Frc consts  --      0.7854                 0.9290                 0.5442
 IR Inten    --      7.9177                 1.6153                 0.0000

                     28                     29                     30
                     A"                     A'                     A'
 Frequencies --    532.9567               560.3074               588.8745
 Red. masses --      3.0539                 4.7026                 6.7235
 Frc consts  --      0.5111                 0.8698                 1.3737
 IR Inten    --      0.0000                 0.0000                 2.3968

                     31                     32                     33
                     A'                     A"                     A"
 Frequencies --    619.5540               622.8019               654.2209
 Red. masses --      6.6837                 3.1983                 3.2432
 Frc consts  --      1.5116                 0.7309                 0.8178
 IR Inten    --      0.0000                10.6864                 0.0000

                     34                     35                     36
                     A"                     A'                     A'
 Frequencies --    679.7770               701.4428               711.6257
 Red. masses --      4.4178                 9.8766                 9.2206
 Frc consts  --      1.2028                 2.8631                 2.7511
 IR Inten    --      0.0000                92.6611                 0.0000

                     37                     38                     39
                     A'                     A"                     A'
 Frequencies --    711.8308               717.7770               740.0340
 Red. masses --      9.3259                 3.1248                 7.6302
 Frc consts  --      2.7842                 0.9485                 2.4620
 IR Inten    --     25.6029                22.9469                 0.0000

                     40                     41                     42
                     A"                     A'                     A'
 Frequencies --    770.4742               801.3487               808.4874
 Red. masses --      7.1124                 5.6103                 5.7901
 Frc consts  --      2.4876                 2.1226                 2.2299
 IR Inten    --      0.0000                 0.0000                 0.0559

                     43                     44                     45
                     A"                     A"                     A"
 Frequencies --    810.7194               816.7403               845.2790
 Red. masses --      1.5626                 1.3799                 4.6615
 Frc consts  --      0.6051                 0.5423                 1.9624
 IR Inten    --      0.3425                 0.0000                 0.0000

                     46                     47                     48
                     A"                     A'                     A'
 Frequencies --    852.7647               916.0503               917.0580
 Red. masses --      4.3825                 7.3635                 5.5663
 Frc consts  --      1.8777                 3.6406                 2.7581
 IR Inten    --     98.6432                 0.0000                 2.6359

                     49                     50                     51
                     A"                     A"                     A"
 Frequencies --    927.8927               930.3712               934.5445
 Red. masses --      1.3736                 1.6288                 1.6787
 Frc consts  --      0.6968                 0.8307                 0.8638
 IR Inten    --      0.0000                 0.0000                44.4361

                     52                     53                     54
                     A"                     A"                     A"
 Frequencies --    939.8208               974.7723               974.8779
 Red. masses --      1.4322                 1.5738                 1.5770
 Frc consts  --      0.7453                 0.8811                 0.8831
 IR Inten    --      0.0000                 0.0000                 0.7746

                     55                     56                     57
                     A"                     A"                     A'
 Frequencies --    987.1285               990.5000              1010.6224
 Red. masses --      1.3099                 1.3089                 6.1120
 Frc consts  --      0.7520                 0.7566                 3.6780
 IR Inten    --      0.0000                 0.0000                 0.0091

                     58                     59                     60
                     A'                     A'                     A'
 Frequencies --   1012.0895              1013.0922              1015.3077
 Red. masses --      9.9149                13.6720                 9.3298
 Frc consts  --      5.9838                 8.2676                 5.6665
 IR Inten    --     11.4034                 0.0000                61.9355

                     61                     62                     63
                     A"                     A"                     A'
 Frequencies --   1033.0256              1033.0272              1106.1954
 Red. masses --      1.4788                 1.4789                 2.2635
 Frc consts  --      0.9298                 0.9298                 1.6319
 IR Inten    --      0.0000                 0.0000                 0.0000

                     64                     65                     66
                     A'                     A'                     A'
 Frequencies --   1126.8437              1139.8224              1171.4113
 Red. masses --      1.8866                 2.7521                11.3868
 Frc consts  --      1.4114                 2.1067                 9.2060
 IR Inten    --     49.0455                 0.0000                 3.5678

                     67                     68                     69
                     A'                     A'                     A'
 Frequencies --   1171.8311              1176.3305              1180.2096
 Red. masses --     10.3571                 1.7568                 2.8427
 Frc consts  --      8.3795                 1.4323                 2.3329
 IR Inten    --      0.0000                 0.0000                 0.9212

                     70                     71                     72
                     A'                     A'                     A'
 Frequencies --   1181.9372              1188.2328              1229.0229
 Red. masses --      1.9330                 1.4238                 1.5944
 Frc consts  --      1.5910                 1.1844                 1.4190
 IR Inten    --      0.0000                 0.1572                 6.0688

                     73                     74                     75
                     A'                     A'                     A'
 Frequencies --   1254.7704              1257.8059              1261.2265
 Red. masses --      2.4894                 1.8318                 1.4680
 Frc consts  --      2.3093                 1.7074                 1.3758
 IR Inten    --      0.0000               102.2564                 0.0000

                     76                     77                     78
                     A'                     A'                     A'
 Frequencies --   1276.0456              1278.5448              1356.5302
 Red. masses --      3.2947                 3.2043                 3.9034
 Frc consts  --      3.1608                 3.0862                 4.2321
 IR Inten    --      0.0311                 0.0000                39.1838

                     79                     80                     81
                     A'                     A'                     A'
 Frequencies --   1357.7187              1359.5683              1367.0416
 Red. masses --      3.1501                 2.2517                 3.3367
 Frc consts  --      3.4213                 2.4522                 3.6739
 IR Inten    --      0.0000               101.2180                 0.0000

                     82                     83                     84
                     A'                     A'                     A'
 Frequencies --   1400.1764              1411.0771              1413.6521
 Red. masses --      1.9243                 2.7267                 1.7601
 Frc consts  --      2.2227                 3.1988                 2.0724
 IR Inten    --      0.0000                 0.0000                33.9215

                     85                     86                     87
                     A'                     A'                     A'
 Frequencies --   1422.5571              1423.2595              1435.5161
 Red. masses --      2.4455                 2.4384                 3.3857
 Frc consts  --      2.9158                 2.9102                 4.1107
 IR Inten    --      0.0000                28.3175                 0.0000

                     88                     89                     90
                     A'                     A'                     A'
 Frequencies --   1441.9536              1461.8760              1472.2121
 Red. masses --      2.0916                 3.9680                 5.2822
 Frc consts  --      2.5623                 4.9962                 6.7454
 IR Inten    --   1082.4477                 0.0000                28.9376

                     91                     92                     93
                     A'                     A'                     A'
 Frequencies --   1489.0117              1496.9891              1497.6856
 Red. masses --      7.8552                 2.8649                 3.7447
 Frc consts  --     10.2613                 3.7827                 4.9489
 IR Inten    --     37.3999               274.4972                 0.0001

                     94                     95                     96
                     A'                     A'                     A'
 Frequencies --   1563.4046              1563.7415              1593.2510
 Red. masses --      7.7405                 7.4198                 5.2719
 Frc consts  --     11.1470                10.6898                 7.8847
 IR Inten    --    237.0543                 0.0007              1472.9221

                     97                     98                     99
                     A'                     A'                     A'
 Frequencies --   1594.9131              1609.7987              1619.9092
 Red. masses --      5.1790                 4.7570                 8.3475
 Frc consts  --      7.7620                 7.2631                12.9059
 IR Inten    --      0.0000                 0.0000                 0.0000

                    100                    101                    102
                     A'                     A'                     A'
 Frequencies --   1635.4302              1641.8651              1667.9710
 Red. masses --      6.4157                 5.8394                 6.9645
 Frc consts  --     10.1101                 9.2745                11.4161
 IR Inten    --     16.7226                 7.4124                 0.0000

                    103                    104                    105
                     A'                     A'                     A'
 Frequencies --   3156.6488              3156.6563              3159.9505
 Red. masses --      1.0902                 1.0902                 1.0945
 Frc consts  --      6.4007                 6.4007                 6.4393
 IR Inten    --      3.5379                43.8715                67.8096

                    106                    107                    108
                     A'                     A'                     A'
 Frequencies --   3160.0584              3160.9809              3161.0610
 Red. masses --      1.0946                 1.0867                 1.0866
 Frc consts  --      6.4402                 6.3972                 6.3973
 IR Inten    --      0.0227                 0.0000                 2.1416

                    109                    110                    111
                     A'                     A'                     A'
 Frequencies --   3179.3699              3179.6360              3198.9098
 Red. masses --      1.0964                 1.0962                 1.0900
 Frc consts  --      6.5297                 6.5299                 6.5719
 IR Inten    --     31.9160                 0.0000                 0.0030

                    112                    113                    114
                     A'                     A'                     A'
 Frequencies --   3198.9458              3199.4153              3199.6140
 Red. masses --      1.0900                 1.0912                 1.0912
 Frc consts  --      6.5719                 6.5813                 6.5817
 IR Inten    --      0.9314                 8.2230                 0.0008

 - Thermochemistry -
 -------------------
 Temperature   298.150 Kelvin.  Pressure   1.00000 Atm.
 Atom     1 has atomic number  6 and mass  12.00000

 Molecular mass:   360.11234 amu.
 Principal axes and moments of inertia in atomic units:
                           1         2         3
     Eigenvalues --  2341.21881********************
           X            0.00000   1.00000   0.00000
           Y            1.00000  -0.00000   0.00000
           Z            0.00000   0.00000   1.00000
 This molecule is an asymmetric top.
 Rotational symmetry number  1.
 Warning -- assumption of classical behavior for rotation
           may cause significant error
 Rotational temperatures (Kelvin)      0.03700     0.00325     0.00299
 Rotational constants (GHZ):           0.77086     0.06768     0.06222
 Zero-point vibrational energy     778794.2 (Joules/Mol)
                                  186.13627 (Kcal/Mol)
 Warning -- explicit consideration of  31 degrees of freedom as
           vibrations may cause significant error
 Vibrational temperatures:     32.45    48.98    57.24    85.28   100.43
          (Kelvin)            152.63   177.08   227.43   238.87   276.00
                              282.25   365.81   366.46   410.74   447.73
                              490.51   509.92   509.93   539.93   576.21
                              684.40   705.63   729.45   736.49   740.44
                              742.47   755.23   766.81   806.16   847.26
                              891.40   896.07   941.28   978.05  1009.22
                             1023.87  1024.17  1032.72  1064.74  1108.54
                             1152.96  1163.23  1166.44  1175.11  1216.17
                             1226.94  1317.99  1319.44  1335.03  1338.60
                             1344.60  1352.19  1402.48  1402.63  1420.26
                             1425.11  1454.06  1456.17  1457.61  1460.80
                             1486.29  1486.30  1591.57  1621.28  1639.95
                             1685.40  1686.00  1692.48  1698.06  1700.54
                             1709.60  1768.29  1805.33  1809.70  1814.62
                             1835.95  1839.54  1951.74  1953.45  1956.12
                             1966.87  2014.54  2030.23  2033.93  2046.74
                             2047.75  2065.39  2074.65  2103.31  2118.18
                             2142.36  2153.83  2154.84  2249.39  2249.88
                             2292.33  2294.72  2316.14  2330.69  2353.02
                             2362.28  2399.84  4541.71  4541.72  4546.46
                             4546.62  4547.95  4548.06  4574.40  4574.79
                             4602.52  4602.57  4603.25  4603.53

 Zero-point correction=                           0.296627 (Hartree/Particle)
 Thermal correction to Energy=                    0.315765
 Thermal correction to Enthalpy=                  0.316709
 Thermal correction to Gibbs Free Energy=         0.247374
 Sum of electronic and zero-point Energies=          -1174.153148
 Sum of electronic and thermal Energies=             -1174.134010
 Sum of electronic and thermal Enthalpies=           -1174.133066
 Sum of electronic and thermal Free Energies=        -1174.202401

                     E (Thermal)             CV                S
                      KCal/Mol        Cal/Mol-Kelvin    Cal/Mol-Kelvin
 Total                  198.146             77.590            145.929
 Electronic               0.000              0.000              0.000
 Translational            0.889              2.981             43.537
 Rotational               0.889              2.981             35.847
 Vibrational            196.368             71.628             66.545
 Vibration     1          0.593              1.985              6.396
 Vibration     2          0.594              1.983              5.579
 Vibration     3          0.594              1.981              5.270
 Vibration     4          0.597              1.974              4.481
 Vibration     5          0.598              1.969              4.159
 Vibration     6          0.605              1.944              3.339
 Vibration     7          0.610              1.930              3.052
 Vibration     8          0.621              1.894              2.573
 Vibration     9          0.624              1.884              2.480
 Vibration    10          0.634              1.851              2.210
 Vibration    11          0.636              1.845              2.169
 Vibration    12          0.665              1.756              1.701
 Vibration    13          0.665              1.755              1.698
 Vibration    14          0.683              1.701              1.501
 Vibration    15          0.700              1.652              1.356
 Vibration    16          0.720              1.594              1.208
 Vibration    17          0.730              1.566              1.147
 Vibration    18          0.730              1.566              1.146
 Vibration    19          0.746              1.523              1.058
 Vibration    20          0.766              1.469              0.961
 Vibration    21          0.832              1.304              0.722
 Vibration    22          0.846              1.271              0.682
 Vibration    23          0.862              1.235              0.641
 Vibration    24          0.867              1.224              0.629
 Vibration    25          0.870              1.218              0.623
 Vibration    26          0.871              1.214              0.619
 Vibration    27          0.880              1.195              0.599
 Vibration    28          0.888              1.177              0.581
 Vibration    29          0.916              1.117              0.523
 Vibration    30          0.946              1.056              0.469
 Vibration    31          0.980              0.991              0.417

 Optimization completed.
    -- Stationary point found.
 Normal termination of Gaussian 16 at Sat Aug 15 09:14:03 2020.
