 Gaussian 16, Revision C.01,
 Gaussian 16:  ES64L-G16RevC.01  3-Jul-2019

 --------------------------------------------------------------------
 #P B3LYP/6-311++G(d,p) EmpiricalDispersion=GD3 freq(noraman) SCF=YQC
 --------------------------------------------------------------------

 --------------------------------------------
 Restart from Adamantane_Nitrile_Triazine.log
 --------------------------------------------
 Symbolic Z-matrix:
 Charge =  0 Multiplicity = 1

                         Standard orientation:
 ---------------------------------------------------------------------
 Center     Atomic      Atomic             Coordinates (Angstroms)
 Number     Number       Type             X           Y           Z
 ---------------------------------------------------------------------
      1          6           0        1.781946   -0.000007    0.000000
      2          6           0       -1.782406    0.000007    0.000000
      3          1           0       -2.425529    0.221721   -0.855301
      4          1           0       -2.425531   -0.221703    0.855300
      5          6           0        0.892242    0.310101   -1.228820
      6          6           0        0.892240   -0.310108    1.228820
      7          6           0       -0.892737   -1.228783   -0.310103
      8          6           0       -0.892729    1.228789    0.310102
      9          6           0        0.004413    1.527961   -0.917968
     10          6           0        0.004401   -1.527961    0.917968
     11          6           0       -0.004853   -0.917967   -1.527944
     12          6           0       -0.004847    0.917967    1.527944
     13          1           0        0.627652    2.403679   -0.716874
     14          1           0        0.627635   -2.403684    0.716874
     15          1           0       -0.628114   -0.716914   -2.403679
     16          1           0       -0.628110    0.716919    2.403679
     17          1           0       -0.619636    1.771679   -1.778699
     18          1           0       -0.619650   -1.771674    1.778699
     19          1           0        0.619179   -1.778691   -1.771636
     20          1           0        0.619191    1.778687    1.771636
     21          1           0        2.425038   -0.855332   -0.221735
     22          1           0        2.425045    0.855314    0.221736
     23          6           0        1.788444    0.559225   -2.427616
     24          7           0        2.627420   -0.430598   -2.779019
     25          6           0        3.394459   -0.181843   -3.835065
     26          7           0        1.709969    1.727991   -3.074561
     27          6           0        2.530423    1.860028   -4.118838
     28          7           0        3.396242    0.945737   -4.553624
     29          1           0        2.486927    2.799730   -4.662614
     30          1           0        4.082613   -0.964257   -4.143087
     31          6           0        1.788438   -0.559238    2.427617
     32          7           0        2.627422    0.430581    2.779021
     33          6           0        3.394458    0.181819    3.835067
     34          7           0        1.709955   -1.728002    3.074562
     35          6           0        2.530408   -1.860046    4.118839
     36          7           0        3.396233   -0.945761    4.553626
     37          1           0        2.486906   -2.799748    4.662616
     38          1           0        4.082617    0.964227    4.143089
     39          6           0       -1.788726   -2.427757   -0.559161
     40          7           0       -1.709055   -3.075645   -1.727321
     41          6           0       -2.529111   -4.120250   -1.859219
     42          7           0       -2.628440   -2.778602    0.430236
     43          6           0       -3.394975   -3.835061    0.181678
     44          7           0       -3.395591   -4.554538   -0.945317
     45          1           0       -4.083737   -4.142620    0.963738
     46          1           0       -2.484654   -4.664777   -2.798441
     47          6           0       -1.788709    2.427770    0.559160
     48          7           0       -1.709034    3.075657    1.727320
     49          6           0       -2.529083    4.120267    1.859217
     50          7           0       -2.628420    2.778621   -0.430238
     51          6           0       -3.394947    3.835085   -0.181680
     52          7           0       -3.395559    4.554562    0.945315
     53          1           0       -4.083707    4.142650   -0.963740
     54          1           0       -2.484624    4.664795    2.798440
 ---------------------------------------------------------------------

 SCF Done:  E(RB3LYP) =  -1507.85940426     a.u. after    7 cycles
 SCF Done:  E(RB3LYP) =  -1507.85941660     A.U. after    8 cycles

 The electronic state is 1-A.
 Alpha  occ. eigenvalues --  -14.34103 -14.34103 -14.34103 -14.34103 -14.34084
 Alpha  occ. eigenvalues --  -14.34084 -14.34084 -14.34083 -14.34067 -14.34067
 Alpha  occ. eigenvalues --  -14.34066 -14.34066 -10.27659 -10.27659 -10.27658
 Alpha  occ. eigenvalues --  -10.27658 -10.27110 -10.27110 -10.27110 -10.27110
 Alpha  occ. eigenvalues --  -10.27099 -10.27099 -10.27099 -10.27099 -10.20674
 Alpha  occ. eigenvalues --  -10.20673 -10.20673 -10.20672 -10.18263 -10.18260
 Alpha  occ. eigenvalues --  -10.17800 -10.17799 -10.17798 -10.17798  -1.04526
 Alpha  occ. eigenvalues --   -1.04487  -1.04487  -1.04486  -0.93391  -0.92620
 Alpha  occ. eigenvalues --   -0.92616  -0.92616  -0.92030  -0.92020  -0.92019
 Alpha  occ. eigenvalues --   -0.92013  -0.88850  -0.80830  -0.80686  -0.80686
 Alpha  occ. eigenvalues --   -0.71179  -0.70782  -0.70732  -0.70732  -0.70091
 Alpha  occ. eigenvalues --   -0.69678  -0.69301  -0.69300  -0.68792  -0.68034
 Alpha  occ. eigenvalues --   -0.61151  -0.61151  -0.61140  -0.57355  -0.57124
 Alpha  occ. eigenvalues --   -0.56808  -0.56807  -0.56475  -0.52891  -0.52716
 Alpha  occ. eigenvalues --   -0.52612  -0.52611  -0.47786  -0.47784  -0.47275
 Alpha  occ. eigenvalues --   -0.47109  -0.47043  -0.47043  -0.46613  -0.46347
 Alpha  occ. eigenvalues --   -0.45372  -0.45138  -0.45137  -0.44814  -0.42743
 Alpha  occ. eigenvalues --   -0.42742  -0.42150  -0.41972  -0.41876  -0.41875
 Alpha  occ. eigenvalues --   -0.39217  -0.38700  -0.38686  -0.38685  -0.36446
 Alpha  occ. eigenvalues --   -0.36446  -0.35873  -0.35519  -0.35393  -0.34941
 Alpha  occ. eigenvalues --   -0.34528  -0.34528  -0.34392  -0.34252  -0.33210
 Alpha  occ. eigenvalues --   -0.32741  -0.32739  -0.31591  -0.31590  -0.31565
 Alpha  occ. eigenvalues --   -0.29055  -0.28714  -0.28484  -0.28484  -0.28377
 Alpha  occ. eigenvalues --   -0.28201  -0.28201  -0.28130
 Alpha virt. eigenvalues --   -0.07122  -0.07063  -0.06875  -0.06875  -0.06758
 Alpha virt. eigenvalues --   -0.06746  -0.06063  -0.06062  -0.01363  -0.00136
 Alpha virt. eigenvalues --   -0.00127  -0.00127   0.01103   0.01124   0.01124

 Mulliken charges:
               1
     1  C   -0.903775
     2  C   -0.903531
     3  H    0.239903
     4  H    0.239903
     5  C    0.131839
     6  C    0.131843
     7  C    0.132070
     8  C    0.132070
     9  C   -1.138089
    10  C   -1.138090
    11  C   -1.138114
    12  C   -1.138116
    13  H    0.247234
    14  H    0.247234
    15  H    0.247165
    16  H    0.247165
    17  H    0.280484
    18  H    0.280484
    19  H    0.280698
    20  H    0.280698
    21  H    0.239833
    22  H    0.239833
    23  C   -0.148979
    24  N    0.185733
    25  C    0.125787
    26  N    0.172883
    27  C    0.047352
    28  N   -0.101382
    29  H    0.204869
    30  H    0.204117
    31  C   -0.148979
    32  N    0.185732
    33  C    0.125787
    34  N    0.172883
    35  C    0.047353
    36  N   -0.101382
    37  H    0.204869
    38  H    0.204117
    39  C   -0.148989
    40  N    0.172858
    41  C    0.047379
    42  N    0.185665
    43  C    0.125761
    44  N   -0.101407
    45  H    0.204114
    46  H    0.204868
    47  C   -0.148990
    48  N    0.172859
    49  C    0.047378
    50  N    0.185665
    51  C    0.125761
    52  N   -0.101406
    53  H    0.204114
    54  H    0.204868
 Sum of Mulliken charges =   0.00000

 Dipole moment (field-independent basis, Debye):
    X=              0.0004    Y=              0.0000    Z=             -0.0000  Tot=              0.0004
 Quadrupole moment (field-independent basis, Debye-Ang):
   XX=           -201.0424   YY=           -200.9392   ZZ=           -200.9335
   XY=             -0.0000   XZ=             -0.0000   YZ=              0.0002

  Exact polarizability:     302.070       0.000     323.420       0.000       0.017     323.345
 Approx polarizability:     442.820       0.000     495.990       0.000       0.045     495.857

                      1                      2                      3
                      A                      A                      A
 Frequencies --     26.3301                27.8829                27.9170
 Red. masses --      6.2083                 5.7308                 5.7306
 Frc consts  --      0.0025                 0.0026                 0.0026
 IR Inten    --      0.0000                 0.0269                 0.0270

                      4                      5                      6
                      A                      A                      A
 Frequencies --     28.4401                47.7679                51.5766
 Red. masses --      6.0857                 7.1263                 7.1141
 Frc consts  --      0.0029                 0.0096                 0.0111
 IR Inten    --      0.0566                 0.0000                 0.0428

                      7                      8                      9
                      A                      A                      A
 Frequencies --     62.8590                62.8883                65.9500
 Red. masses --      7.2271                 7.2268                 7.5033
 Frc consts  --      0.0168                 0.0168                 0.0192
 IR Inten    --      0.0053                 0.0053                 0.0111

                     10                     11                     12
                      A                      A                      A
 Frequencies --    130.5645               130.6402               148.7232
 Red. masses --      6.4037                 6.4033                 5.7126
 Frc consts  --      0.0643                 0.0644                 0.0744
 IR Inten    --      0.1108                 0.1109                 0.0000

                     13                     14                     15
                      A                      A                      A
 Frequencies --    201.2802               210.9720               229.9341
 Red. masses --     12.6495                 6.7779                 5.1549
 Frc consts  --      0.3019                 0.1777                 0.1606
 IR Inten    --      0.0000                 0.0000                 0.0635

                     16                     17                     18
                      A                      A                      A
 Frequencies --    229.9531               234.4264               267.7240
 Red. masses --      5.1507                 9.6577                 4.0179
 Frc consts  --      0.1605                 0.3127                 0.1697
 IR Inten    --      0.0635                 0.0000                 0.0488

                     19                     20                     21
                      A                      A                      A
 Frequencies --    267.7440               272.6698               292.2418
 Red. masses --      4.0157                 7.2293                 2.9724
 Frc consts  --      0.1696                 0.3167                 0.1496
 IR Inten    --      0.0488                 0.0171                 0.0000

                     22                     23                     24
                      A                      A                      A
 Frequencies --    327.0526               332.8610               332.9384
 Red. masses --      5.5372                 3.8336                 3.8336
 Frc consts  --      0.3490                 0.2503                 0.2504
 IR Inten    --      1.7134                 1.8325                 1.8380

                     25                     26                     27
                      A                      A                      A
 Frequencies --    353.3308               353.6730               353.6771
 Red. masses --      3.3973                 3.4012                 3.4014
 Frc consts  --      0.2499                 0.2507                 0.2507
 IR Inten    --      0.0000                 0.0669                 0.0676

                     28                     29                     30
                      A                      A                      A
 Frequencies --    353.9123               417.2145               447.7819
 Red. masses --      3.4026                 4.5717                 2.7276
 Frc consts  --      0.2511                 0.4689                 0.3222
 IR Inten    --      0.0884                 0.0000                 2.0185

                     31                     32                     33
                      A                      A                      A
 Frequencies --    447.8781               450.9159               495.2356
 Red. masses --      2.7253                 4.2334                 2.0303
 Frc consts  --      0.3221                 0.5071                 0.2934
 IR Inten    --      2.0166                 0.1493                 0.1895

                     34                     35                     36
                      A                      A                      A
 Frequencies --    511.1347               521.7853               521.7993
 Red. masses --      3.7589                 2.2232                 2.2239
 Frc consts  --      0.5786                 0.3566                 0.3568
 IR Inten    --      0.0000                 6.4093                 6.4152

                     37                     38                     39
                      A                      A                      A
 Frequencies --    564.1100               595.4880               605.4230
 Red. masses --      2.7590                 2.8379                 2.6847
 Frc consts  --      0.5173                 0.5929                 0.5798
 IR Inten    --     20.7032                 0.0000                 7.2002

                     40                     41                     42
                      A                      A                      A
 Frequencies --    605.4426               689.7656               689.8810
 Red. masses --      2.6844                 7.0480                 7.2045
 Frc consts  --      0.5797                 1.9757                 2.0202
 IR Inten    --      7.1898                37.5391                24.9185

                     43                     44                     45
                      A                      A                      A
 Frequencies --    689.8841               710.5312               712.0826
 Red. masses --      7.2047                 9.3097                 9.0736
 Frc consts  --      2.0203                 2.7692                 2.7108
 IR Inten    --     24.8939                 0.0000                32.0816

                     46                     47                     48
                      A                      A                      A
 Frequencies --    712.0866               712.5290               723.4282
 Red. masses --      9.0729                 9.2200                 8.6754
 Frc consts  --      2.7106                 2.7580                 2.6750
 IR Inten    --     32.1368                15.3773                 0.0000

                     49                     50                     51
                      A                      A                      A
 Frequencies --    796.5729               804.4496               804.4773
 Red. masses --      4.4533                 4.5434                 4.5434
 Frc consts  --      1.6649                 1.7323                 1.7324
 IR Inten    --      9.3085                 2.2522                 2.2454

                     52                     53                     54
                      A                      A                      A
 Frequencies --    819.2281               847.9584               854.7674
 Red. masses --      5.2371                 6.0899                 6.1096
 Frc consts  --      2.0708                 2.5799                 2.6300
 IR Inten    --      0.0000                 0.0000                14.7806

                     55                     56                     57
                      A                      A                      A
 Frequencies --    865.9210               865.9366               909.8688
 Red. masses --      6.5321                 6.5326                 1.6189
 Frc consts  --      2.8858                 2.8861                 0.7896
 IR Inten    --      9.2658                 9.2741                 0.0000

                     58                     59                     60
                      A                      A                      A
 Frequencies --    911.5255               911.5446               923.2622
 Red. masses --      1.6802                 1.6799                 3.5492
 Frc consts  --      0.8225                 0.8224                 1.7825
 IR Inten    --      0.4820                 0.4781                 2.1367

                     61                     62                     63
                      A                      A                      A
 Frequencies --    927.6214               927.6317               974.3641
 Red. masses --      3.1402                 3.1421                 1.6721
 Frc consts  --      1.5920                 1.5930                 0.9353
 IR Inten    --      3.1244                 3.1120                 0.0000

                     64                     65                     66
                      A                      A                      A
 Frequencies --    976.6715               978.1074               978.1097
 Red. masses --      1.6335                 1.5998                 1.5998
 Frc consts  --      0.9181                 0.9018                 0.9018
 IR Inten    --      0.0094                 0.1381                 0.1382

                     67                     68                     69
                      A                      A                      A
 Frequencies --   1012.8875              1013.2701              1014.1509
 Red. masses --     13.5475                 8.2178                 9.6614
 Frc consts  --      8.1890                 4.9711                 5.8546
 IR Inten    --      0.0000                 0.8893                 2.2401

                     70                     71                     72
                      A                      A                      A
 Frequencies --   1014.1548              1023.6587              1025.4651
 Red. masses --      9.6698                 3.0518                 2.8676
 Frc consts  --      5.8597                 1.8842                 1.7767
 IR Inten    --      2.2443                12.5891                10.7887

                     73                     74                     75
                      A                      A                      A
 Frequencies --   1025.4843              1038.2496              1038.4399
 Red. masses --      2.8659                 1.5033                 1.4894
 Frc consts  --      1.7757                 0.9548                 0.9463
 IR Inten    --     10.7673                 0.0000                 0.0012

                     76                     77                     78
                      A                      A                      A
 Frequencies --   1038.4412              1038.4972              1049.7742
 Red. masses --      1.4894                 1.4903                 2.9557
 Frc consts  --      0.9463                 0.9470                 1.9191
 IR Inten    --      0.0013                 0.0017                 0.0001

                     79                     80                     81
                      A                      A                      A
 Frequencies --   1056.7277              1066.4723              1066.5356
 Red. masses --      2.9451                 2.1920                 2.1917
 Frc consts  --      1.9376                 1.4689                 1.4689
 IR Inten    --      7.3919                 0.3232                 0.3237

                     82                     83                     84
                      A                      A                      A
 Frequencies --   1075.8450              1112.2520              1162.0635
 Red. masses --      2.1527                 8.1830                 8.8639
 Frc consts  --      1.4680                 5.9644                 7.0524
 IR Inten    --      0.0000                 0.0000                 2.9243

                     85                     86                     87
                      A                      A                      A
 Frequencies --   1162.0659              1165.8241              1167.7226
 Red. masses --      8.8633                 5.8973                 9.3182
 Frc consts  --      7.0520                 4.7225                 7.4862
 IR Inten    --      2.9276                 0.0296                 0.0000

                     88                     89                     90
                      A                      A                      A
 Frequencies --   1171.5657              1182.7853              1182.7862
 Red. masses --      1.0658                 3.0640                 3.0639
 Frc consts  --      0.8619                 2.5255                 2.5254
 IR Inten    --      0.4672                 0.1427                 0.1428

                     91                     92                     93
                      A                      A                      A
 Frequencies --   1182.9642              1184.4795              1211.3963
 Red. masses --      3.0955                 2.9340                 3.9670
 Frc consts  --      2.5522                 2.4253                 3.4299
 IR Inten    --      0.0759                 0.0000                 8.0305

                     94                     95                     96
                      A                      A                      A
 Frequencies --   1217.9544              1218.0009              1273.2508
 Red. masses --      4.2615                 4.2615                 2.5397
 Frc consts  --      3.7246                 3.7248                 2.4258
 IR Inten    --      7.5602                 7.5405                 0.0000

                     97                     98                     99
                      A                      A                      A
 Frequencies --   1281.6047              1282.1365              1282.1759
 Red. masses --      2.8672                 2.4528                 2.4532
 Frc consts  --      2.7747                 2.3756                 2.3762
 IR Inten    --      3.8329                 8.1872                 8.2110

                    100                    101                    102
                      A                      A                      A
 Frequencies --   1308.0642              1308.0716              1310.2225
 Red. masses --      1.5566                 1.5562                 2.7617
 Frc consts  --      1.5692                 1.5689                 2.7932
 IR Inten    --      8.2587                 8.2527                12.7408

                    103                    104                    105
                      A                      A                      A
 Frequencies --   1311.1374              1311.3925              1311.4111
 Red. masses --      1.3409                 2.2131                 2.2178
 Frc consts  --      1.3582                 2.2425                 2.2473
 IR Inten    --      0.0001                 6.1935                 6.2090

                    106                    107                    108
                      A                      A                      A
 Frequencies --   1326.1194              1330.1853              1330.2106
 Red. masses --      1.5609                 1.6054                 1.6052
 Frc consts  --      1.6173                 1.6736                 1.6735
 IR Inten    --      0.0000                 0.3828                 0.3822

                    109                    110                    111
                      A                      A                      A
 Frequencies --   1343.9666              1355.2000              1358.1073
 Red. masses --      1.7010                 1.4568                 2.1622
 Frc consts  --      1.8102                 1.5764                 2.3497
 IR Inten    --      0.0000                11.4006                 0.0000

                    112                    113                    114
                      A                      A                      A
 Frequencies --   1393.4636              1393.4874              1399.9032
 Red. masses --      1.6201                 1.6203                 1.6578
 Frc consts  --      1.8535                 1.8538                 1.9142
 IR Inten    --      6.9941                 7.0122                20.2442

                    115                    116                    117
                      A                      A                      A
 Frequencies --   1417.8758              1417.9230              1417.9238
 Red. masses --      1.5350                 1.5332                 1.5332
 Frc consts  --      1.8182                 1.8161                 1.8161
 IR Inten    --      0.0038                50.5515                50.5359

                    118                    119                    120
                      A                      A                      A
 Frequencies --   1418.1884              1449.1679              1449.1710
 Red. masses --      1.5487                 2.3069                 2.3069
 Frc consts  --      1.8352                 2.8544                 2.8545
 IR Inten    --     18.3071               256.4658               256.4556

                    121                    122                    123
                      A                      A                      A
 Frequencies --   1450.3760              1460.5082              1487.9884
 Red. masses --      2.3406                 2.5243                 1.0842
 Frc consts  --      2.9010                 3.1725                 1.4143
 IR Inten    --    268.9375                 0.0000                 0.0534

                    124                    125                    126
                      A                      A                      A
 Frequencies --   1492.9057              1502.9229              1502.9292
 Red. masses --      1.0814                 1.0933                 1.0933
 Frc consts  --      1.4200                 1.4550                 1.4550
 IR Inten    --      0.0000                17.1539                17.1551

                    127                    128                    129
                      A                      A                      A
 Frequencies --   1510.0641              1533.0784              1565.2099
 Red. masses --      1.0888                 1.0918                 8.0343
 Frc consts  --      1.4628                 1.5119                11.5970
 IR Inten    --     15.9474                 0.0000                 0.0001

                    130                    131                    132
                      A                      A                      A
 Frequencies --   1566.3553              1566.3592              1567.1628
 Red. masses --      8.0954                 8.0954                 8.0828
 Frc consts  --     11.7022                11.7023                11.6961
 IR Inten    --    228.2432               228.4895                37.6195

                    133                    134                    135
                      A                      A                      A
 Frequencies --   1596.6698              1596.6732              1596.9489
 Red. masses --      5.5262                 5.5264                 5.5442
 Frc consts  --      8.3006                 8.3008                 8.3305
 IR Inten    --    497.9715               498.2011               529.9627

                    136                    137                    138
                      A                      A                      A
 Frequencies --   1605.2671              3042.0112              3043.1653
 Red. masses --      5.9755                 1.0585                 1.0597
 Frc consts  --      9.0723                 5.7714                 5.7820
 IR Inten    --      0.0000                 0.0078                 9.3545

                    139                    140                    141
                      A                      A                      A
 Frequencies --   3045.8789              3047.6321              3047.7352
 Red. masses --      1.0608                 1.0640                 1.0639
 Frc consts  --      5.7986                 5.8224                 5.8224
 IR Inten    --     27.2420                24.3138                24.3066

                    142                    143                    144
                      A                      A                      A
 Frequencies --   3052.2960              3090.9502              3090.9903
 Red. masses --      1.0654                 1.1057                 1.1057
 Frc consts  --      5.8480                 6.2238                 6.2239
 IR Inten    --      0.0001                 6.6474                 6.6291

                    145                    146                    147
                      A                      A                      A
 Frequencies --   3101.8379              3104.6784              3104.8117
 Red. masses --      1.0992                 1.1007                 1.1006
 Frc consts  --      6.2314                 6.2510                 6.2511
 IR Inten    --      0.0043                15.8642                15.7885

                    148                    149                    150
                      A                      A                      A
 Frequencies --   3106.4826              3156.6474              3156.6790
 Red. masses --      1.1011                 1.0903                 1.0903
 Frc consts  --      6.2607                 6.4009                 6.4011
 IR Inten    --     15.5255                 0.1918                36.5636

                    151                    152                    153
                      A                      A                      A
 Frequencies --   3156.6828              3156.6991              3159.9644
 Red. masses --      1.0903                 1.0903                 1.0947
 Frc consts  --      6.4012                 6.4013                 6.4402
 IR Inten    --     36.9983                12.9568                24.5856

                    154                    155                    156
                      A                      A                      A
 Frequencies --   3159.9688              3159.9695              3160.2232
 Red. masses --      1.0947                 1.0947                 1.0948
 Frc consts  --      6.4402                 6.4403                 6.4419
 IR Inten    --     25.0511                24.3032                 0.0027

 - Thermochemistry -
 -------------------
 Temperature   298.150 Kelvin.  Pressure   1.00000 Atm.
 Atom     1 has atomic number  6 and mass  12.00000

 Molecular mass:   452.19339 amu.
 Principal axes and moments of inertia in atomic units:
                           1         2         3
     Eigenvalues --  ******************************
           X            1.00000   0.00000  -0.00000
           Y           -0.00000   0.99998   0.00590
           Z            0.00000  -0.00590   0.99998
 This molecule is an asymmetric top.
 Rotational symmetry number  1.
 Warning -- assumption of classical behavior for rotation
           may cause significant error
 Rotational temperatures (Kelvin)      0.00504     0.00500     0.00500
 Rotational constants (GHZ):           0.10500     0.10420     0.10418
 Zero-point vibrational energy    1111183.3 (Joules/Mol)
                                  265.57919 (Kcal/Mol)
 Warning -- explicit consideration of  40 degrees of freedom as
           vibrations may cause significant error
 Vibrational temperatures:     37.88    40.12    40.17    40.92    68.73
          (Kelvin)             74.21    90.44    90.48    94.89   187.85
                              187.96   213.98   289.60   303.54   330.82
                              330.85   337.29   385.20   385.22   392.31
                              420.47   470.56   478.91   479.02   508.36
                              508.86   508.86   509.20   600.28   644.26
                              644.40   648.77   712.53   735.41   750.73
                              750.75   811.63   856.77   871.07   871.10
                              992.42   992.58   992.59  1022.30  1024.53
                             1024.53  1025.17  1040.85  1146.09  1157.42
                             1157.46  1178.69  1220.02  1229.82  1245.87
                             1245.89  1309.10  1311.48  1311.51  1328.37
                             1334.64  1334.66  1401.89  1405.21  1407.28
                             1407.28  1457.32  1457.87  1459.14  1459.14
                             1472.82  1475.42  1475.44  1493.81  1494.08
                             1494.09  1494.17  1510.39  1520.40  1534.42
                             1534.51  1547.90  1600.28  1671.95  1671.95
                             1677.36  1680.09  1685.62  1701.76  1701.77
                             1702.02  1704.20  1742.93  1752.36  1752.43
                             1831.92  1843.94  1844.71  1844.77  1882.01
                             1882.02  1885.12  1886.43  1886.80  1886.83
                             1907.99  1913.84  1913.88  1933.67  1949.83
                             1954.01  2004.88  2004.92  2014.15  2040.01
                             2040.07  2040.08  2040.46  2085.03  2085.03
                             2086.77  2101.35  2140.88  2147.96  2162.37
                             2162.38  2172.65  2205.76  2251.99  2253.64
                             2253.64  2254.80  2297.25  2297.26  2297.65
                             2309.62  4376.78  4378.44  4382.34  4384.86
                             4385.01  4391.57  4447.19  4447.25  4462.85
                             4466.94  4467.13  4469.54  4541.71  4541.76
                             4541.76  4541.79  4546.48  4546.49  4546.49
                             4546.86

 Zero-point correction=                           0.423227 (Hartree/Particle)
 Thermal correction to Energy=                    0.448274
 Thermal correction to Enthalpy=                  0.449219
 Thermal correction to Gibbs Free Energy=         0.365583
 Sum of electronic and zero-point Energies=          -1507.436189
 Sum of electronic and thermal Energies=             -1507.411142
 Sum of electronic and thermal Enthalpies=           -1507.410198
 Sum of electronic and thermal Free Energies=        -1507.493834

                     E (Thermal)             CV                S
                      KCal/Mol        Cal/Mol-Kelvin    Cal/Mol-Kelvin
 Total                  281.296             99.485            176.027
 Electronic               0.000              0.000              0.000
 Translational            0.889              2.981             44.216
 Rotational               0.889              2.981             36.887
 Vibrational            279.519             93.524             94.924
 Vibration     1          0.593              1.985              6.088
 Vibration     2          0.593              1.984              5.975
 Vibration     3          0.593              1.984              5.972
 Vibration     4          0.593              1.984              5.935
 Vibration     5          0.595              1.978              4.908
 Vibration     6          0.596              1.977              4.756
 Vibration     7          0.597              1.972              4.365
 Vibration     8          0.597              1.972              4.364
 Vibration     9          0.597              1.971              4.271
 Vibration    10          0.612              1.923              2.938
 Vibration    11          0.612              1.923              2.937
 Vibration    12          0.618              1.904              2.688
 Vibration    13          0.638              1.838              2.121
 Vibration    14          0.643              1.824              2.035
 Vibration    15          0.652              1.795              1.879
 Vibration    16          0.652              1.795              1.879
 Vibration    17          0.654              1.788              1.845
 Vibration    18          0.673              1.732              1.611
 Vibration    19          0.673              1.732              1.611
 Vibration    20          0.676              1.724              1.579
 Vibration    21          0.688              1.688              1.461
 Vibration    22          0.711              1.621              1.275
 Vibration    23          0.715              1.610              1.246
 Vibration    24          0.715              1.610              1.246
 Vibration    25          0.730              1.568              1.151
 Vibration    26          0.730              1.568              1.150
 Vibration    27          0.730              1.568              1.150
 Vibration    28          0.730              1.567              1.149
 Vibration    29          0.780              1.433              0.901
 Vibration    30          0.807              1.366              0.803
 Vibration    31          0.807              1.366              0.802
 Vibration    32          0.810              1.359              0.793
 Vibration    33          0.851              1.261              0.670
 Vibration    34          0.866              1.225              0.631
 Vibration    35          0.877              1.202              0.606
 Vibration    36          0.877              1.202              0.606
 Vibration    37          0.920              1.109              0.516
 Vibration    38          0.953              1.041              0.457
 Vibration    39          0.964              1.020              0.440
 Vibration    40          0.964              1.020              0.440

 Normal termination of Gaussian 16 at Sun Aug  2 12:09:59 2020.
