 Gaussian 16, Revision C.01,
 Gaussian 16:  ES64L-G16RevC.01  3-Jul-2019

 ----------------------------------------------------------------------
 #P B3LYP/6-311++G(d,p) EmpiricalDispersion=GD3 freq(noraman) SCF=YQC N
 oSymm
 ----------------------------------------------------------------------

 --------------------------------------------
 Restart from BiPhenyl_PrimaryAmine_Imine.log
 --------------------------------------------
 Symbolic Z-matrix:
 Charge =  0 Multiplicity = 1

                          Input orientation:
 ---------------------------------------------------------------------
 Center     Atomic      Atomic             Coordinates (Angstroms)
 Number     Number       Type             X           Y           Z
 ---------------------------------------------------------------------
      1          6           0       -0.008969    3.573026    0.017840
      2          6           0        1.128567    2.858917   -0.391416
      3          6           0        1.126313    1.469228   -0.394241
      4          6           0       -0.001752    0.740375    0.011386
      5          6           0       -1.140489    1.464246    0.402005
      6          6           0       -1.152700    2.851707    0.388784
      7          6           0        0.001752   -0.740376    0.011386
      8          6           0       -1.126313   -1.469230   -0.394241
      9          6           0       -1.128567   -2.858918   -0.391416
     10          6           0        0.008970   -3.573027    0.017840
     11          6           0        1.152701   -2.851708    0.388784
     12          6           0        1.140489   -1.464247    0.402004
     13          1           0       -1.998874   -3.396232   -0.750880
     14          1           0       -2.037546    3.401309    0.687806
     15          1           0        2.037546   -3.401310    0.687806
     16          1           0        1.998874    3.396231   -0.750880
     17          1           0       -2.002762   -0.940310   -0.751381
     18          1           0       -2.023416    0.930133    0.734366
     19          1           0        2.002762    0.940309   -0.751381
     20          1           0        2.023417   -0.930134    0.734366
     21          7           0       -0.079409    4.974620    0.022942
     22          6           0        0.921864    5.668642    0.405147
     23          6           0        0.934034    7.135713    0.371734
     24          6           0        2.063180    7.822259    0.838601
     25          6           0        2.105212    9.214363    0.818639
     26          6           0        1.016501    9.934426    0.330808
     27          6           0       -0.114378    9.257710   -0.136838
     28          6           0       -0.157827    7.870193   -0.118675
     29          1           0        1.832725    5.195480    0.798607
     30          1           0        2.910912    7.260888    1.218944
     31          1           0        2.983768    9.735040    1.182191
     32          1           0        1.045988   11.018132    0.313673
     33          1           0       -0.960906    9.818817   -0.516569
     34          1           0       -1.026367    7.332326   -0.478453
     35          7           0        0.079409   -4.974621    0.022943
     36          6           0       -0.921864   -5.668643    0.405147
     37          6           0       -0.934034   -7.135714    0.371735
     38          6           0       -2.063180   -7.822260    0.838601
     39          6           0       -2.105212   -9.214365    0.818639
     40          6           0       -1.016501   -9.934427    0.330809
     41          6           0        0.114378   -9.257711   -0.136838
     42          6           0        0.157827   -7.870194   -0.118675
     43          1           0       -1.832725   -5.195481    0.798608
     44          1           0       -2.910912   -7.260889    1.218944
     45          1           0       -2.983768   -9.735041    1.182192
     46          1           0       -1.045988  -11.018133    0.313673
     47          1           0        0.960906   -9.818818   -0.516568
     48          1           0        1.026367   -7.332327   -0.478453
 ---------------------------------------------------------------------

 SCF Done:  E(RB3LYP) =  -1112.62682897     a.u. after    6 cycles
 SCF Done:  E(RB3LYP) =  -1112.62684959     A.U. after   11 cycles

 Alpha  occ. eigenvalues --  -14.31849 -14.31849 -10.22659 -10.22659 -10.21136
 Alpha  occ. eigenvalues --  -10.21136 -10.19417 -10.19416 -10.19016 -10.19016
 Alpha  occ. eigenvalues --  -10.18872 -10.18872 -10.18809 -10.18778 -10.18703
 Alpha  occ. eigenvalues --  -10.18703 -10.18573 -10.18573 -10.18392 -10.18392
 Alpha  occ. eigenvalues --  -10.17989 -10.17989 -10.17932 -10.17932 -10.17852
 Alpha  occ. eigenvalues --  -10.17852 -10.17570 -10.17570  -0.94652  -0.94637
 Alpha  occ. eigenvalues --   -0.87557  -0.87197  -0.86609  -0.84583  -0.79130
 Alpha  occ. eigenvalues --   -0.77778  -0.76253  -0.76062  -0.75799  -0.75768
 Alpha  occ. eigenvalues --   -0.75095  -0.72310  -0.67176  -0.65277  -0.62964
 Alpha  occ. eigenvalues --   -0.62661  -0.62138  -0.61445  -0.60367  -0.59419
 Alpha  occ. eigenvalues --   -0.57151  -0.56659  -0.53973  -0.52883  -0.52330
 Alpha  occ. eigenvalues --   -0.52196  -0.50087  -0.48660  -0.47634  -0.47014
 Alpha  occ. eigenvalues --   -0.45836  -0.45513  -0.45360  -0.44731  -0.44577
 Alpha  occ. eigenvalues --   -0.43862  -0.43624  -0.43388  -0.43383  -0.43066
 Alpha  occ. eigenvalues --   -0.42434  -0.40898  -0.39986  -0.39742  -0.38632
 Alpha  occ. eigenvalues --   -0.38028  -0.36903  -0.36582  -0.36037  -0.35783
 Alpha  occ. eigenvalues --   -0.35693  -0.35623  -0.35486  -0.33803  -0.33650
 Alpha  occ. eigenvalues --   -0.29892  -0.28524  -0.26896  -0.26889  -0.26538
 Alpha  occ. eigenvalues --   -0.26237  -0.26100  -0.26052  -0.24220  -0.21211
 Alpha virt. eigenvalues --   -0.07797  -0.06845  -0.02597  -0.02452  -0.02180
 Alpha virt. eigenvalues --   -0.02058  -0.01744  -0.00924  -0.00840  -0.00199
 Alpha virt. eigenvalues --    0.00122   0.00622   0.00689   0.01110   0.01267

 Mulliken charges:
               1
     1  C   -0.274830
     2  C   -0.206984
     3  C   -0.408210
     4  C    0.706861
     5  C   -0.285120
     6  C   -0.157236
     7  C    0.706862
     8  C   -0.408210
     9  C   -0.206984
    10  C   -0.274834
    11  C   -0.157234
    12  C   -0.285120
    13  H    0.170599
    14  H    0.177386
    15  H    0.177386
    16  H    0.170599
    17  H    0.164230
    18  H    0.169345
    19  H    0.164230
    20  H    0.169346
    21  N    0.209763
    22  C   -0.346780
    23  C    0.975738
    24  C   -0.604443
    25  C   -0.352099
    26  C   -0.414092
    27  C   -0.183771
    28  C   -0.308885
    29  H    0.102057
    30  H    0.161386
    31  H    0.167360
    32  H    0.161650
    33  H    0.181667
    34  H    0.194407
    35  N    0.209763
    36  C   -0.346778
    37  C    0.975735
    38  C   -0.604444
    39  C   -0.352098
    40  C   -0.414091
    41  C   -0.183771
    42  C   -0.308883
    43  H    0.102057
    44  H    0.161386
    45  H    0.167360
    46  H    0.161650
    47  H    0.181667
    48  H    0.194407
 Sum of Mulliken charges =   0.00000

 Dipole moment (field-independent basis, Debye):
    X=              0.0000    Y=              0.0000    Z=              0.8586  Tot=              0.8586
 Quadrupole moment (field-independent basis, Debye-Ang):
   XX=           -147.8662   YY=           -122.2857   ZZ=           -171.4110
   XY=             15.7455   XZ=             -0.0000   YZ=             -0.0000

  Exact polarizability:     292.393      62.201     761.501      -0.000      -0.000     180.801
 Approx polarizability:     537.166      63.890     876.544      -0.000      -0.000     300.316

                      1                      2                      3
                      A                      A                      A
 Frequencies --     13.1998                22.0397                25.5049
 Red. masses --      6.3462                 5.8210                 3.6442
 Frc consts  --      0.0007                 0.0017                 0.0014
 IR Inten    --      0.3040                 0.1144                 0.1934

                      4                      5                      6
                      A                      A                      A
 Frequencies --     39.1139                41.2518                51.1195
 Red. masses --      4.9137                 4.2970                 5.4605
 Frc consts  --      0.0044                 0.0043                 0.0084
 IR Inten    --      0.4145                 0.3715                 0.0188

                      7                      8                      9
                      A                      A                      A
 Frequencies --     73.1828                83.7511               101.5113
 Red. masses --      3.9751                 5.3342                 5.0815
 Frc consts  --      0.0125                 0.0220                 0.0309
 IR Inten    --      0.0223                 0.5903                 3.0755

                     10                     11                     12
                      A                      A                      A
 Frequencies --    120.3777               123.6008               144.1074
 Red. masses --      5.0309                 6.4364                 5.0970
 Frc consts  --      0.0430                 0.0579                 0.0624
 IR Inten    --      0.3891                 0.1549                 3.3048

                     13                     14                     15
                      A                      A                      A
 Frequencies --    202.1292               218.4023               222.9821
 Red. masses --      5.7142                 5.0560                 5.8459
 Frc consts  --      0.1376                 0.1421                 0.1713
 IR Inten    --      3.3899                 7.0760                 0.2088

                     16                     17                     18
                      A                      A                      A
 Frequencies --    264.5230               278.5371               318.1631
 Red. masses --      2.8268                 3.1768                 5.3358
 Frc consts  --      0.1165                 0.1452                 0.3182
 IR Inten    --     16.0676                 4.8358                 6.6290

                     19                     20                     21
                      A                      A                      A
 Frequencies --    341.1565               374.7799               409.4636
 Red. masses --      5.5106                 6.7944                 5.1261
 Frc consts  --      0.3779                 0.5623                 0.5064
 IR Inten    --      3.1522                 2.6412                 0.1235

                     22                     23                     24
                      A                      A                      A
 Frequencies --    413.5060               413.8136               420.2328
 Red. masses --      2.9138                 2.9310                 3.2008
 Frc consts  --      0.2935                 0.2957                 0.3330
 IR Inten    --      0.1075                 0.1841                23.7621

                     25                     26                     27
                      A                      A                      A
 Frequencies --    426.7514               430.2422               483.8315
 Red. masses --      4.4407                 3.0590                 4.4844
 Frc consts  --      0.4765                 0.3336                 0.6185
 IR Inten    --      1.1575                 0.0854                 6.7502

                     28                     29                     30
                      A                      A                      A
 Frequencies --    495.4342               526.7374               527.0132
 Red. masses --      3.1529                 3.7871                 4.2410
 Frc consts  --      0.4560                 0.6191                 0.6940
 IR Inten    --      5.2535                 3.1882                 0.2909

                     31                     32                     33
                      A                      A                      A
 Frequencies --    549.8834               557.8323               579.0159
 Red. masses --      7.8002                 2.9143                 2.2766
 Frc consts  --      1.3896                 0.5343                 0.4497
 IR Inten    --      9.2083                32.1440                 6.1956

                     34                     35                     36
                      A                      A                      A
 Frequencies --    611.1956               632.2810               632.4023
 Red. masses --      5.8998                 6.4829                 6.4539
 Frc consts  --      1.2985                 1.5270                 1.5208
 IR Inten    --      2.1566                 0.0852                 0.0792

                     37                     38                     39
                      A                      A                      A
 Frequencies --    646.7641               658.1896               667.5473
 Red. masses --      6.9214                 6.7143                 6.1332
 Frc consts  --      1.7058                 1.7138                 1.6103
 IR Inten    --      0.2959                 0.3401                34.0581

                     40                     41                     42
                      A                      A                      A
 Frequencies --    702.0685               702.1392               725.8764
 Red. masses --      1.8656                 1.8685                 5.0576
 Frc consts  --      0.5418                 0.5427                 1.5701
 IR Inten    --     10.6761                66.8441                 4.7518

                     43                     44                     45
                      A                      A                      A
 Frequencies --    744.8281               756.6933               770.8121
 Red. masses --      4.1325                 2.7610                 1.7412
 Frc consts  --      1.3508                 0.9314                 0.6095
 IR Inten    --      6.6149                10.9073                38.9585

                     46                     47                     48
                      A                      A                      A
 Frequencies --    774.6044               832.3454               832.5447
 Red. masses --      2.0787                 1.4808                 1.9738
 Frc consts  --      0.7348                 0.6044                 0.8061
 IR Inten    --      7.1035                34.6717                 3.8809

                     49                     50                     51
                      A                      A                      A
 Frequencies --    841.3418               843.0767               851.9314
 Red. masses --      2.2171                 1.8815                 2.8745
 Frc consts  --      0.9247                 0.7879                 1.2292
 IR Inten    --      2.4789                24.2201                24.5920

                     52                     53                     54
                      A                      A                      A
 Frequencies --    857.9079               858.0230               863.7208
 Red. masses --      1.2538                 1.2566                 2.1012
 Frc consts  --      0.5437                 0.5451                 0.9236
 IR Inten    --      0.6579                 0.2022                25.8772

                     55                     56                     57
                      A                      A                      A
 Frequencies --    898.4181               901.5197               935.3412
 Red. masses --      4.0893                 3.3380                 1.3684
 Frc consts  --      1.9447                 1.5984                 0.7053
 IR Inten    --     11.2284                26.7483                 2.5452

                     58                     59                     60
                      A                      A                      A
 Frequencies --    935.3677               962.3780               967.8477
 Red. masses --      1.3737                 1.3408                 1.3702
 Frc consts  --      0.7081                 0.7317                 0.7562
 IR Inten    --      0.6130                 1.0881                 0.3590

                     61                     62                     63
                      A                      A                      A
 Frequencies --    980.1546               981.9136               990.9158
 Red. masses --      1.3580                 1.3501                 1.3600
 Frc consts  --      0.7687                 0.7670                 0.7868
 IR Inten    --      1.1839                 0.4957                 0.0613

                     64                     65                     66
                      A                      A                      A
 Frequencies --    990.9226               999.7174              1000.2147
 Red. masses --      1.3600                 1.4745                 1.4231
 Frc consts  --      0.7868                 0.8683                 0.8388
 IR Inten    --      0.1485                 3.2615                 3.3865

                     67                     68                     69
                      A                      A                      A
 Frequencies --   1009.1603              1010.2582              1014.4496
 Red. masses --      1.5520                 1.4627                 6.2225
 Frc consts  --      0.9312                 0.8796                 3.7729
 IR Inten    --      2.6226                 6.7891                 1.4514

                     70                     71                     72
                      A                      A                      A
 Frequencies --   1014.4606              1018.8116              1032.6935
 Red. masses --      6.2262                 4.1163                 2.6828
 Frc consts  --      3.7752                 2.5174                 1.6857
 IR Inten    --      0.0855                19.5245                 0.0929

                     73                     74                     75
                      A                      A                      A
 Frequencies --   1046.7966              1046.9196              1050.9308
 Red. masses --      2.1599                 2.1437                 2.3628
 Frc consts  --      1.3945                 1.3843                 1.5375
 IR Inten    --     10.4293                 0.0189                 0.8111

                     76                     77                     78
                      A                      A                      A
 Frequencies --   1106.1225              1106.1899              1145.5732
 Red. masses --      1.6011                 1.5977                 1.4277
 Frc consts  --      1.1542                 1.1519                 1.1039
 IR Inten    --      1.7245                11.5629                11.0558

                     79                     80                     81
                      A                      A                      A
 Frequencies --   1146.3462              1191.1464              1191.1510
 Red. masses --      1.3004                 1.1299                 1.1303
 Frc consts  --      1.0069                 0.9446                 0.9449
 IR Inten    --      0.7515                 5.6137                 0.0174

                     82                     83                     84
                      A                      A                      A
 Frequencies --   1196.4889              1197.0163              1204.7503
 Red. masses --      1.7180                 1.5682                 1.1708
 Frc consts  --      1.4491                 1.3239                 1.0012
 IR Inten    --      0.2760               141.2317                 0.3316

                     85                     86                     87
                      A                      A                      A
 Frequencies --   1205.3421              1221.5634              1228.3885
 Red. masses --      1.2179                 1.8420                 1.6861
 Frc consts  --      1.0425                 1.6194                 1.4990
 IR Inten    --      0.2986                43.7880                 0.0163

                     88                     89                     90
                      A                      A                      A
 Frequencies --   1269.8321              1273.4463              1290.1653
 Red. masses --      2.6632                 2.6242                 5.0819
 Frc consts  --      2.5302                 2.5073                 4.9839
 IR Inten    --      3.2022                 0.1002                 3.7395

                     91                     92                     93
                      A                      A                      A
 Frequencies --   1307.6841              1310.2490              1326.8532
 Red. masses --      3.3289                 4.4325                 1.9478
 Frc consts  --      3.3539                 4.4834                 2.0204
 IR Inten    --      0.0010                 0.0280                13.2898

                     94                     95                     96
                      A                      A                      A
 Frequencies --   1332.4640              1338.0790              1338.1162
 Red. masses --      3.3535                 1.4793                 1.8452
 Frc consts  --      3.5080                 1.5606                 1.9466
 IR Inten    --      0.0601                 0.0005                18.2943

                     97                     98                     99
                      A                      A                      A
 Frequencies --   1354.2878              1354.3030              1412.5698
 Red. masses --      1.8981                 1.8860                 1.4491
 Frc consts  --      2.0511                 2.0381                 1.7036
 IR Inten    --      0.5913                 7.8425                 1.1394

                    100                    101                    102
                      A                      A                      A
 Frequencies --   1412.6102              1431.9227              1452.4019
 Red. masses --      1.4439                 2.7842                 2.9497
 Frc consts  --      1.6976                 3.3634                 3.6660
 IR Inten    --     10.6685                 6.6140                 1.0934

                    103                    104                    105
                      A                      A                      A
 Frequencies --   1480.5500              1480.6463              1518.7762
 Red. masses --      2.1770                 2.1798                 2.1629
 Frc consts  --      2.8116                 2.8156                 2.9395
 IR Inten    --     20.0932                 1.4118                75.9967

                    106                    107                    108
                      A                      A                      A
 Frequencies --   1523.1784              1527.3424              1547.7403
 Red. masses --      2.2465                 2.3650                 2.7396
 Frc consts  --      3.0709                 3.2506                 3.8666
 IR Inten    --      0.0414               102.8345                 0.0864

                    109                    110                    111
                      A                      A                      A
 Frequencies --   1577.4535              1598.8854              1613.9389
 Red. masses --      5.7183                 6.7510                 5.4901
 Frc consts  --      8.3835                10.1683                 8.4257
 IR Inten    --      1.7108                 0.0218                 0.8370

                    112                    113                    114
                      A                      A                      A
 Frequencies --   1614.4376              1629.2556              1634.4104
 Red. masses --      5.4808                 5.4032                 5.4380
 Frc consts  --      8.4165                 8.4504                 8.5587
 IR Inten    --     45.2576                 0.5021                43.7935

                    115                    116                    117
                      A                      A                      A
 Frequencies --   1642.8139              1645.7343              1686.9621
 Red. masses --      5.5084                 5.6973                 7.4935
 Frc consts  --      8.7589                 9.0915                12.5646
 IR Inten    --      0.0937                 9.9740               297.3663

                    118                    119                    120
                      A                      A                      A
 Frequencies --   1687.9009              2996.1524              2996.1610
 Red. masses --      7.5171                 1.0854                 1.0854
 Frc consts  --     12.6181                 5.7405                 5.7406
 IR Inten    --      3.6382                13.6307                63.5037

                    121                    122                    123
                      A                      A                      A
 Frequencies --   3154.4259              3154.4272              3163.3952
 Red. masses --      1.0872                 1.0872                 1.0873
 Frc consts  --      6.3740                 6.3741                 6.4106
 IR Inten    --     10.4061                 0.9423                45.8657

                    124                    125                    126
                      A                      A                      A
 Frequencies --   3163.5814              3163.7022              3163.7155
 Red. masses --      1.0873                 1.0877                 1.0877
 Frc consts  --      6.4116                 6.4140                 6.4141
 IR Inten    --      0.2103                 0.0725                 0.0204

                    127                    128                    129
                      A                      A                      A
 Frequencies --   3168.6848              3169.6910              3175.1607
 Red. masses --      1.0878                 1.0875                 1.0916
 Frc consts  --      6.4353                 6.4372                 6.4838
 IR Inten    --      0.6052                 4.0290                10.0037

                    130                    131                    132
                      A                      A                      A
 Frequencies --   3175.1628              3181.4389              3181.5358
 Red. masses --      1.0916                 1.0939                 1.0939
 Frc consts  --      6.4838                 6.5233                 6.5238
 IR Inten    --     25.2511                 3.9546                12.6029

                    133                    134                    135
                      A                      A                      A
 Frequencies --   3186.9432              3186.9620              3187.7906
 Red. masses --      1.0960                 1.0960                 1.0943
 Frc consts  --      6.5588                 6.5588                 6.5521
 IR Inten    --     49.0574                 1.1266                12.5906

                    136                    137                    138
                      A                      A                      A
 Frequencies --   3188.6072              3196.5805              3196.5899
 Red. masses --      1.0947                 1.0947                 1.0947
 Frc consts  --      6.5575                 6.5905                 6.5906
 IR Inten    --      0.4460                17.2488                 0.6116

 - Thermochemistry -
 -------------------
 Temperature   298.150 Kelvin.  Pressure   1.00000 Atm.
 Atom     1 has atomic number  6 and mass  12.00000

 Molecular mass:   360.16265 amu.
 Principal axes and moments of inertia in atomic units:
                           1         2         3
     Eigenvalues --  1393.94446********************
           X            0.10439   0.99454   0.00000
           Y            0.99454  -0.10439   0.00000
           Z           -0.00000  -0.00000   1.00000
 This molecule is an asymmetric top.
 Rotational symmetry number  2.
 Warning -- assumption of classical behavior for rotation
           may cause significant error
 Rotational temperatures (Kelvin)      0.06214     0.00172     0.00169
 Rotational constants (GHZ):           1.29470     0.03590     0.03522
 Zero-point vibrational energy    1009615.2 (Joules/Mol)
                                  241.30382 (Kcal/Mol)
 Warning -- explicit consideration of  34 degrees of freedom as
           vibrations may cause significant error
 Vibrational temperatures:     18.99    31.71    36.70    56.28    59.35
          (Kelvin)             73.55   105.29   120.50   146.05   173.20
                              177.83   207.34   290.82   314.23   320.82
                              380.59   400.75   457.77   490.85   539.22
                              589.13   594.94   595.39   604.62   614.00
                              619.02   696.13   712.82   757.86   758.25
                              791.16   802.60   833.07   879.37   909.71
                              909.89   930.55   946.99   960.45  1010.12
                             1010.22  1044.37  1071.64  1088.71  1109.03
                             1114.48  1197.56  1197.85  1210.50  1213.00
                             1225.74  1234.34  1234.50  1242.70  1292.62
                             1297.09  1345.75  1345.79  1384.65  1392.52
                             1410.22  1412.75  1425.71  1425.72  1438.37
                             1439.09  1451.96  1453.54  1459.57  1459.58
                             1465.84  1485.82  1506.11  1506.28  1512.06
                             1591.46  1591.56  1648.22  1649.34  1713.79
                             1713.80  1721.48  1722.24  1733.37  1734.22
                             1757.56  1767.38  1827.01  1832.21  1856.26
                             1881.47  1885.16  1909.05  1917.12  1925.20
                             1925.25  1948.52  1948.54  2032.37  2032.43
                             2060.22  2089.68  2130.18  2130.32  2185.18
                             2191.51  2197.51  2226.85  2269.60  2300.44
                             2322.10  2322.82  2344.14  2351.55  2363.64
                             2367.84  2427.16  2428.51  4310.80  4310.81
                             4538.52  4538.52  4551.42  4551.69  4551.86
                             4551.88  4559.03  4560.48  4568.35  4568.35
                             4577.38  4577.52  4585.30  4585.33  4586.52
                             4587.69  4599.17  4599.18

 Zero-point correction=                           0.384542 (Hartree/Particle)
 Thermal correction to Energy=                    0.407024
 Thermal correction to Enthalpy=                  0.407969
 Thermal correction to Gibbs Free Energy=         0.329522
 Sum of electronic and zero-point Energies=          -1112.242307
 Sum of electronic and thermal Energies=             -1112.219825
 Sum of electronic and thermal Enthalpies=           -1112.218881
 Sum of electronic and thermal Free Energies=        -1112.297328

                     E (Thermal)             CV                S
                      KCal/Mol        Cal/Mol-Kelvin    Cal/Mol-Kelvin
 Total                  255.412             89.269            165.105
 Electronic               0.000              0.000              0.000
 Translational            0.889              2.981             43.538
 Rotational               0.889              2.981             35.150
 Vibrational            253.634             83.308             86.418
 Vibration     1          0.593              1.987              7.460
 Vibration     2          0.593              1.985              6.441
 Vibration     3          0.593              1.985              6.152
 Vibration     4          0.594              1.981              5.303
 Vibration     5          0.594              1.981              5.198
 Vibration     6          0.595              1.977              4.774
 Vibration     7          0.599              1.967              4.066
 Vibration     8          0.601              1.960              3.801
 Vibration     9          0.604              1.948              3.425
 Vibration    10          0.609              1.932              3.094
 Vibration    11          0.610              1.929              3.043
 Vibration    12          0.616              1.909              2.749
 Vibration    13          0.639              1.837              2.114
 Vibration    14          0.646              1.813              1.972
 Vibration    15          0.649              1.806              1.935
 Vibration    16          0.671              1.738              1.632
 Vibration    17          0.679              1.713              1.543
 Vibration    18          0.705              1.639              1.320
 Vibration    19          0.721              1.593              1.207
 Vibration    20          0.746              1.524              1.060
 Vibration    21          0.774              1.450              0.929
 Vibration    22          0.777              1.441              0.914
 Vibration    23          0.777              1.440              0.913
 Vibration    24          0.783              1.426              0.891
 Vibration    25          0.788              1.412              0.869
 Vibration    26          0.791              1.404              0.858
 Vibration    27          0.840              1.286              0.700
 Vibration    28          0.851              1.260              0.670
 Vibration    29          0.882              1.191              0.595
 Vibration    30          0.882              1.190              0.594
 Vibration    31          0.905              1.140              0.544
 Vibration    32          0.913              1.123              0.528
 Vibration    33          0.936              1.077              0.487
 Vibration    34          0.970              1.008              0.431

 Optimization completed.
    -- Stationary point found.
 Normal termination of Gaussian 16 at Fri Oct  9 23:58:45 2020.
