 Gaussian 16, Revision C.01,
 Gaussian 16:  ES64L-G16RevC.01  3-Jul-2019

 --------------------------------------------------------------------
 #P B3LYP/6-311++G(d,p) EmpiricalDispersion=GD3 freq(noraman) SCF=YQC
 --------------------------------------------------------------------

 --------------------------------------------------
 Restart from 3_Phenyl_Aldehyde_Benzobisoxazole.log
 --------------------------------------------------
 Symbolic Z-matrix:
 Charge =  0 Multiplicity = 1

                         Standard orientation:
 ---------------------------------------------------------------------
 Center     Atomic      Atomic             Coordinates (Angstroms)
 Number     Number       Type             X           Y           Z
 ---------------------------------------------------------------------
      1          6           0       -1.397342   -0.025078   -0.000018
      2          6           0       -0.718178    1.200822   -0.000017
      3          6           0        0.676867    1.222587   -0.000016
      4          6           0        1.398925    0.021455   -0.000016
      5          6           0        0.720258   -1.197576   -0.000018
      6          6           0       -0.680983   -1.222349   -0.000019
      7          1           0        2.479998    0.051546   -0.000010
      8          1           0       -1.195447   -2.173635   -0.000016
      9          1           0       -1.284820    2.121985   -0.000011
     10          1           0       -8.057213   -1.793919   -0.000075
     11          6           0       -7.166398   -1.176937   -0.000039
     12          6           0       -7.300573    0.222868    0.000061
     13          1           0       -8.294647    0.654481    0.000099
     14          6           0       -6.190830    1.063504    0.000112
     15          1           0       -6.288961    2.141803    0.000193
     16          6           0       -4.932222    0.460108    0.000063
     17          7           0       -3.649943    1.000797    0.000088
     18          6           0       -4.826914   -0.936340   -0.000034
     19          8           0       -3.491612   -1.247919   -0.000070
     20          6           0       -5.913975   -1.792535   -0.000090
     21          1           0       -5.797323   -2.868451   -0.000165
     22          6           0       -2.857202   -0.024590   -0.000009
     23          1           0        5.582325   -6.080447   -0.000074
     24          6           0        4.602563   -5.617539   -0.000042
     25          6           0        3.457447   -6.433737    0.000036
     26          1           0        3.580771   -7.510426    0.000063
     27          6           0        2.174532   -5.893061    0.000080
     28          1           0        1.289799   -6.517245    0.000143
     29          6           0        2.067704   -4.501384    0.000044
     30          7           0        0.958260   -3.661318    0.000065
     31          6           0        3.224347   -3.711872   -0.000031
     32          8           0        2.826462   -2.399705   -0.000056
     33          6           0        4.509391   -4.225118   -0.000080
     34          1           0        5.382797   -3.586084   -0.000138
     35          6           0        1.449820   -2.462058   -0.000012
     36          1           0        2.475173    7.874566   -0.000130
     37          6           0        2.564044    6.794605   -0.000073
     38          6           0        3.843378    6.210847    0.000072
     39          1           0        4.714236    6.855887    0.000124
     40          6           0        4.016442    4.829456    0.000151
     41          1           0        4.999323    4.375247    0.000267
     42          6           0        2.864554    4.041220    0.000082
     43          7           0        2.691621    2.660406    0.000129
     44          6           0        1.602561    4.648285   -0.000060
     45          8           0        0.665033    3.647708   -0.000108
     46          6           0        1.404675    6.017815   -0.000143
     47          1           0        0.414599    6.454797   -0.000254
     48          6           0        1.407235    2.486605   -0.000004
 ---------------------------------------------------------------------

 SCF Done:  E(RB3LYP) =  -1428.26232966     a.u. after    8 cycles
 SCF Done:  E(RB3LYP) =  -1428.26234390     A.U. after    9 cycles

 The electronic state is 1-A.
 Alpha  occ. eigenvalues --  -19.20922 -19.20922 -19.20922 -14.32606 -14.32606
 Alpha  occ. eigenvalues --  -14.32606 -10.28627 -10.28627 -10.28627 -10.24619
 Alpha  occ. eigenvalues --  -10.24619 -10.24619 -10.21862 -10.21862 -10.21862
 Alpha  occ. eigenvalues --  -10.21707 -10.21707 -10.21707 -10.20598 -10.20598
 Alpha  occ. eigenvalues --  -10.20596 -10.19565 -10.19565 -10.19565 -10.19150
 Alpha  occ. eigenvalues --  -10.19150 -10.19150 -10.19061 -10.19061 -10.19060
 Alpha  occ. eigenvalues --  -10.18759 -10.18759 -10.18759  -1.14536  -1.14528
 Alpha  occ. eigenvalues --   -1.14528  -0.94584  -0.94508  -0.94508  -0.90304
 Alpha  occ. eigenvalues --   -0.87331  -0.87331  -0.86617  -0.81482  -0.81482
 Alpha  occ. eigenvalues --   -0.76983  -0.76832  -0.76832  -0.76183  -0.74765
 Alpha  occ. eigenvalues --   -0.74765  -0.68076  -0.68076  -0.66932  -0.63654
 Alpha  occ. eigenvalues --   -0.63504  -0.63504  -0.62036  -0.62036  -0.61636
 Alpha  occ. eigenvalues --   -0.59292  -0.59292  -0.55750  -0.53834  -0.52907
 Alpha  occ. eigenvalues --   -0.52907  -0.52361  -0.52360  -0.51509  -0.50795
 Alpha  occ. eigenvalues --   -0.49690  -0.49399  -0.49399  -0.48527  -0.48526
 Alpha  occ. eigenvalues --   -0.47567  -0.46025  -0.46025  -0.45968  -0.45076
 Alpha  occ. eigenvalues --   -0.44319  -0.44319  -0.42572  -0.42388  -0.42388
 Alpha  occ. eigenvalues --   -0.41219  -0.39208  -0.39208  -0.38664  -0.38517
 Alpha  occ. eigenvalues --   -0.38516  -0.37592  -0.37592  -0.37093  -0.37042
 Alpha  occ. eigenvalues --   -0.36841  -0.36841  -0.35591  -0.35591  -0.34156
 Alpha  occ. eigenvalues --   -0.30858  -0.30742  -0.30742  -0.30144  -0.30144
 Alpha  occ. eigenvalues --   -0.26134  -0.26124  -0.26124  -0.25030  -0.23812
 Alpha  occ. eigenvalues --   -0.23812
 Alpha virt. eigenvalues --   -0.08189  -0.08189  -0.05117  -0.02107  -0.02107
 Alpha virt. eigenvalues --   -0.01559  -0.00821  -0.00691  -0.00691  -0.00522
 Alpha virt. eigenvalues --   -0.00522   0.00306   0.00713   0.00846   0.00846

 Mulliken charges:
               1
     1  C    0.619503
     2  C   -1.371996
     3  C    0.619448
     4  C   -1.372063
     5  C    0.619514
     6  C   -1.372049
     7  H    0.266166
     8  H    0.266151
     9  H    0.266167
    10  H    0.171592
    11  C   -0.270970
    12  C   -0.153876
    13  H    0.171149
    14  C   -0.439592
    15  H    0.173409
    16  C    0.463832
    17  N    0.094489
    18  C    0.701372
    19  O   -0.063924
    20  C   -0.439515
    21  H    0.170379
    22  C   -0.091963
    23  H    0.171591
    24  C   -0.270884
    25  C   -0.153859
    26  H    0.171150
    27  C   -0.439584
    28  H    0.173407
    29  C    0.463800
    30  N    0.094456
    31  C    0.701138
    32  O   -0.063899
    33  C   -0.439451
    34  H    0.170376
    35  C   -0.091736
    36  H    0.171590
    37  C   -0.270987
    38  C   -0.153930
    39  H    0.171152
    40  C   -0.439613
    41  H    0.173412
    42  C    0.464041
    43  N    0.094485
    44  C    0.701378
    45  O   -0.063926
    46  C   -0.439483
    47  H    0.170385
    48  C   -0.092231
 Sum of Mulliken charges =  -0.00000

 Dipole moment (field-independent basis, Debye):
    X=              0.0001    Y=              0.0001    Z=             -0.0003  Tot=              0.0003
 Quadrupole moment (field-independent basis, Debye-Ang):
   XX=           -159.9833   YY=           -159.9855   ZZ=           -196.2175
   XY=              0.0008   XZ=              0.0000   YZ=             -0.0002

  Exact polarizability:     526.923      -0.001     526.908       0.001      -0.000     162.122
 Approx polarizability:     761.310       0.001     761.303       0.003      -0.000     265.999

                      1                      2                      3
                      A                      A                      A
 Frequencies --     26.1924                26.9462                27.0883
 Red. masses --      6.3575                 5.1602                 5.1594
 Frc consts  --      0.0026                 0.0022                 0.0022
 IR Inten    --      1.0762                 0.0023                 0.0003

                      4                      5                      6
                      A                      A                      A
 Frequencies --     29.6029                39.7399                39.7652
 Red. masses --      5.2043                 6.3120                 6.3124
 Frc consts  --      0.0027                 0.0059                 0.0059
 IR Inten    --      0.5450                 0.2746                 0.2742

                      7                      8                      9
                      A                      A                      A
 Frequencies --     68.7335                68.7724               127.7013
 Red. masses --      6.8045                 6.8037                 6.5060
 Frc consts  --      0.0189                 0.0190                 0.0625
 IR Inten    --      0.0000                 0.0000                 0.0000

                     10                     11                     12
                      A                      A                      A
 Frequencies --    156.3602               194.8122               194.8772
 Red. masses --      7.0061                 4.6939                 4.6936
 Frc consts  --      0.1009                 0.1050                 0.1050
 IR Inten    --      3.4892                 0.0000                 0.0000

                     13                     14                     15
                      A                      A                      A
 Frequencies --    198.8615               216.0530               216.0599
 Red. masses --      8.2828                 7.1927                 7.1928
 Frc consts  --      0.1930                 0.1978                 0.1978
 IR Inten    --      0.0000                 2.2948                 2.2936

                     16                     17                     18
                      A                      A                      A
 Frequencies --    258.4451               258.6200               258.6374
 Red. masses --      6.3164                 6.3086                 6.3097
 Frc consts  --      0.2486                 0.2486                 0.2487
 IR Inten    --      1.0691                 0.0028                 0.0025

                     19                     20                     21
                      A                      A                      A
 Frequencies --    314.4026               314.4502               338.9467
 Red. masses --      5.4132                 5.4137                 7.0678
 Frc consts  --      0.3153                 0.3154                 0.4784
 IR Inten    --      0.0000                 0.0000                 0.0019

                     22                     23                     24
                      A                      A                      A
 Frequencies --    360.2043               360.2113               412.5384
 Red. masses --      6.4066                 6.4064                 5.3342
 Frc consts  --      0.4897                 0.4898                 0.5349
 IR Inten    --      0.6298                 0.6294                 0.0000

                     25                     26                     27
                      A                      A                      A
 Frequencies --    429.9355               429.9538               435.3512
 Red. masses --      3.0031                 3.0033                 3.0904
 Frc consts  --      0.3271                 0.3271                 0.3451
 IR Inten    --      0.0000                 0.0001                14.0736

                     28                     29                     30
                      A                      A                      A
 Frequencies --    535.1820               535.2184               552.2898
 Red. masses --      8.0762                 8.0760                 5.9645
 Frc consts  --      1.3629                 1.3630                 1.0719
 IR Inten    --      0.4602                 0.4602                 0.0000

                     31                     32                     33
                      A                      A                      A
 Frequencies --    552.3320               569.1503               569.1615
 Red. masses --      5.9658                 7.8744                 7.8747
 Frc consts  --      1.0723                 1.5029                 1.5030
 IR Inten    --      0.0000                 4.8208                 4.8206

                     34                     35                     36
                      A                      A                      A
 Frequencies --    579.3411               583.2929               585.4492
 Red. masses --      8.2293                 3.9455                 3.9915
 Frc consts  --      1.6274                 0.7909                 0.8061
 IR Inten    --      0.0000                 0.3099                 0.0000

                     37                     38                     39
                      A                      A                      A
 Frequencies --    585.4594               612.2735               636.0012
 Red. masses --      3.9913                 6.3744                 7.0174
 Frc consts  --      0.8060                 1.4079                 1.6724
 IR Inten    --      0.0000                 0.0000                 3.6944

                     40                     41                     42
                      A                      A                      A
 Frequencies --    636.0193               642.5336               688.9081
 Red. masses --      7.0171                 6.4887                 2.9030
 Frc consts  --      1.6724                 1.5783                 0.8117
 IR Inten    --      3.6953                 0.0000                13.6255

                     43                     44                     45
                      A                      A                      A
 Frequencies --    721.7941               742.1616               742.1872
 Red. masses --      3.6451                 2.5280                 2.5253
 Frc consts  --      1.1189                 0.8204                 0.8196
 IR Inten    --      0.2099                 0.0000                 0.0000

                     46                     47                     48
                      A                      A                      A
 Frequencies --    753.8409               753.8534               754.4542
 Red. masses --      7.1071                 7.1071                 1.9868
 Frc consts  --      2.3796                 2.3797                 0.6663
 IR Inten    --      1.9095                 1.9099               147.5255

                     49                     50                     51
                      A                      A                      A
 Frequencies --    755.6904               755.7061               764.3085
 Red. masses --      2.9690                 2.9696                 2.4627
 Frc consts  --      0.9990                 0.9992                 0.8476
 IR Inten    --      0.0006                 0.0095               121.1013

                     52                     53                     54
                      A                      A                      A
 Frequencies --    767.0819               767.1068               811.8872
 Red. masses --      2.7184                 2.7214                 5.7036
 Frc consts  --      0.9424                 0.9435                 2.2151
 IR Inten    --      0.0034                 0.0004                 0.0000

                     55                     56                     57
                      A                      A                      A
 Frequencies --    858.9887               859.1756               859.2021
 Red. masses --      1.4019                 1.4030                 1.4030
 Frc consts  --      0.6095                 0.6102                 0.6102
 IR Inten    --      0.0730                 0.0007                 0.0001

                     58                     59                     60
                      A                      A                      A
 Frequencies --    863.9182               863.9214               905.5352
 Red. masses --      7.2844                 7.2851                 6.9369
 Frc consts  --      3.2033                 3.2036                 3.3514
 IR Inten    --     87.4675                87.4619                 0.0000

                     61                     62                     63
                      A                      A                      A
 Frequencies --    908.0797               908.0920               935.5402
 Red. masses --      6.9411                 6.9412                 1.6582
 Frc consts  --      3.3723                 3.3725                 0.8551
 IR Inten    --      1.8021                 1.8018                23.3236

                     64                     65                     66
                      A                      A                      A
 Frequencies --    939.3388               944.4964               944.5089
 Red. masses --     12.4431                 1.3696                 1.3696
 Frc consts  --      6.4688                 0.7199                 0.7199
 IR Inten    --      0.0000                 0.0019                 0.0156

                     67                     68                     69
                      A                      A                      A
 Frequencies --    944.6779               956.3011               956.3126
 Red. masses --      1.3716                11.7426                11.7418
 Frc consts  --      0.7212                 6.3271                 6.3268
 IR Inten    --      6.2585                41.3578                41.3557

                     70                     71                     72
                      A                      A                      A
 Frequencies --    956.7979               957.0103               977.2385
 Red. masses --      1.3836                 1.3832                 1.2645
 Frc consts  --      0.7463                 0.7464                 0.7115
 IR Inten    --      0.0003                 0.0007                 0.0001

                     73                     74                     75
                      A                      A                      A
 Frequencies --    977.2421               977.2628              1011.2600
 Red. masses --      1.2646                 1.2646                 6.2441
 Frc consts  --      0.7115                 0.7116                 3.7622
 IR Inten    --      0.0060                 0.0051                 0.0000

                     76                     77                     78
                      A                      A                      A
 Frequencies --   1022.0824              1022.2930              1022.3255
 Red. masses --      2.0294                 2.0191                 2.0190
 Frc consts  --      1.2491                 1.2433                 1.2432
 IR Inten    --      0.1797                22.0928                21.9255

                     79                     80                     81
                      A                      A                      A
 Frequencies --   1081.8775              1118.1094              1118.1874
 Red. masses --      9.8205                 2.2463                 2.2461
 Frc consts  --      6.7724                 1.6546                 1.6546
 IR Inten    --      0.0000                10.4656                10.4691

                     82                     83                     84
                      A                      A                      A
 Frequencies --   1133.5045              1136.3434              1136.4170
 Red. masses --      1.5398                 1.5377                 1.5391
 Frc consts  --      1.1657                 1.1699                 1.1711
 IR Inten    --      0.0000                13.8232                13.8485

                     85                     86                     87
                      A                      A                      A
 Frequencies --   1174.4584              1174.4588              1175.1953
 Red. masses --      1.2833                 1.2831                 1.2384
 Frc consts  --      1.0429                 1.0428                 1.0077
 IR Inten    --      7.9988                 7.9773                 0.0000

                     88                     89                     90
                      A                      A                      A
 Frequencies --   1206.0109              1206.0376              1220.8404
 Red. masses --      2.5008                 2.5004                 3.8686
 Frc consts  --      2.1430                 2.1428                 3.3972
 IR Inten    --     66.3093                66.1820                 0.0000

                     91                     92                     93
                      A                      A                      A
 Frequencies --   1263.4008              1263.4161              1264.1455
 Red. masses --      4.0538                 4.0538                 3.9015
 Frc consts  --      3.8123                 3.8125                 3.6735
 IR Inten    --    107.3935               107.3338                 0.0211

                     94                     95                     96
                      A                      A                      A
 Frequencies --   1287.0833              1287.0926              1303.4468
 Red. masses --      4.2371                 4.2351                 1.6068
 Frc consts  --      4.1355                 4.1336                 1.6084
 IR Inten    --      9.6261                 9.6093                 0.0001

                     97                     98                     99
                      A                      A                      A
 Frequencies --   1309.5877              1309.5944              1314.2425
 Red. masses --      1.5955                 1.5954                 1.5891
 Frc consts  --      1.6122                 1.6121                 1.6171
 IR Inten    --      2.9474                 2.9453                 0.0001

                    100                    101                    102
                      A                      A                      A
 Frequencies --   1359.5275              1363.5131              1377.0829
 Red. masses --      5.5765                 4.1303                 5.2232
 Frc consts  --      6.0728                 4.5243                 5.8358
 IR Inten    --      0.0000                 0.0000                 7.8834

                    103                    104                    105
                      A                      A                      A
 Frequencies --   1377.0862              1390.1813              1463.4260
 Red. masses --      5.2227                 7.1596                 3.5023
 Frc consts  --      5.8354                 8.1523                 4.4192
 IR Inten    --      7.8928                 0.0000               118.7338

                    106                    107                    108
                      A                      A                      A
 Frequencies --   1463.4727              1473.8100              1476.6916
 Red. masses --      3.4958                 2.4991                 2.7843
 Frc consts  --      4.4113                 3.1983                 3.5773
 IR Inten    --    118.8361                 0.0007                 9.4476

                    109                    110                    111
                      A                      A                      A
 Frequencies --   1476.7059              1506.1405              1506.1550
 Red. masses --      2.7820                 2.6464                 2.6462
 Frc consts  --      3.5743                 3.5370                 3.5368
 IR Inten    --      9.6060                 4.1627                 3.7616

                    112                    113                    114
                      A                      A                      A
 Frequencies --   1506.1989              1585.6201              1585.6344
 Red. masses --      2.6437                 9.3662                 9.3672
 Frc consts  --      3.5337                13.8743                13.8760
 IR Inten    --      0.4110               110.2386               110.2381

                    115                    116                    117
                      A                      A                      A
 Frequencies --   1598.0185              1630.6492              1630.6685
 Red. masses --      9.9380                 6.0751                 6.0744
 Frc consts  --     14.9524                 9.5176                 9.5167
 IR Inten    --      0.0001                 7.0109                 7.0148

                    118                    119                    120
                      A                      A                      A
 Frequencies --   1643.6561              1646.3579              1646.3685
 Red. masses --      7.6533                 7.0275                 7.0257
 Frc consts  --     12.1820                11.2227                11.2200
 IR Inten    --      0.0000                 3.7163                 3.7161

                    121                    122                    123
                      A                      A                      A
 Frequencies --   1653.0238              1658.9115              1658.9331
 Red. masses --      7.7299                 7.2636                 7.2617
 Frc consts  --     12.4446                11.7775                11.7746
 IR Inten    --      0.0000                 6.4568                 6.4449

                    124                    125                    126
                      A                      A                      A
 Frequencies --   3170.2924              3170.2967              3170.3098
 Red. masses --      1.0869                 1.0869                 1.0869
 Frc consts  --      6.4363                 6.4363                 6.4363
 IR Inten    --      2.8060                 2.7261                 2.7243

                    127                    128                    129
                      A                      A                      A
 Frequencies --   3184.7612              3184.7635              3184.7772
 Red. masses --      1.0908                 1.0908                 1.0908
 Frc consts  --      6.5188                 6.5188                 6.5188
 IR Inten    --     14.7636                14.5586                 0.2558

                    130                    131                    132
                      A                      A                      A
 Frequencies --   3198.9932              3199.0044              3199.0170
 Red. masses --      1.0947                 1.0947                 1.0947
 Frc consts  --      6.6002                 6.6002                 6.6002
 IR Inten    --      9.4853                 8.5152                 7.2198

                    133                    134                    135
                      A                      A                      A
 Frequencies --   3204.0665              3204.0772              3204.1105
 Red. masses --      1.0960                 1.0960                 1.0960
 Frc consts  --      6.6294                 6.6294                 6.6296
 IR Inten    --     10.2032                10.3407                 0.3006

                    136                    137                    138
                      A                      A                      A
 Frequencies --   3216.8189              3216.8528              3216.8831
 Red. masses --      1.0916                 1.0917                 1.0918
 Frc consts  --      6.6554                 6.6559                 6.6565
 IR Inten    --      5.2592                 5.0521                 4.7387

 - Thermochemistry -
 -------------------
 Temperature   298.150 Kelvin.  Pressure   1.00000 Atm.
 Atom     1 has atomic number  6 and mass  12.00000

 Molecular mass:   429.11134 amu.
 Principal axes and moments of inertia in atomic units:
                           1         2         3
     Eigenvalues --  ******************************
           X            1.00000   0.00064  -0.00000
           Y           -0.00064   1.00000  -0.00000
           Z            0.00000   0.00000   1.00000
 This molecule is an asymmetric top.
 Rotational symmetry number  1.
 Warning -- assumption of classical behavior for rotation
           may cause significant error
 Rotational temperatures (Kelvin)      0.00451     0.00451     0.00225
 Rotational constants (GHZ):           0.09396     0.09395     0.04698
 Zero-point vibrational energy     935562.6 (Joules/Mol)
                                  223.60483 (Kcal/Mol)
 Warning -- explicit consideration of  38 degrees of freedom as
           vibrations may cause significant error
 Vibrational temperatures:     37.69    38.77    38.97    42.59    57.18
          (Kelvin)             57.21    98.89    98.95   183.73   224.97
                              280.29   280.38   286.12   310.85   310.86
                              371.84   372.10   372.12   452.36   452.42
                              487.67   518.25   518.26   593.55   618.58
                              618.61   626.37   770.01   770.06   794.62
                              794.68   818.88   818.90   833.54   839.23
                              842.33   842.35   880.92   915.06   915.09
                              924.46   991.19  1038.50  1067.81  1067.84
                             1084.61  1084.63  1085.49  1087.27  1087.29
                             1099.67  1103.66  1103.70  1168.12  1235.89
                             1236.16  1236.20  1242.99  1242.99  1302.86
                             1306.52  1306.54  1346.03  1351.50  1358.92
                             1358.94  1359.18  1375.90  1375.92  1376.62
                             1376.92  1406.03  1406.03  1406.06  1454.98
                             1470.55  1470.85  1470.90  1556.58  1608.71
                             1608.82  1630.86  1634.94  1635.05  1689.78
                             1689.78  1690.84  1735.18  1735.22  1756.52
                             1817.75  1817.77  1818.82  1851.83  1851.84
                             1875.37  1884.20  1884.21  1890.90  1956.06
                             1961.79  1981.32  1981.32  2000.16  2105.54
                             2105.61  2120.48  2124.63  2124.65  2167.00
                             2167.02  2167.08  2281.35  2281.37  2299.19
                             2346.14  2346.17  2364.85  2368.74  2368.76
                             2378.33  2386.80  2386.83  4561.34  4561.35
                             4561.37  4582.16  4582.16  4582.18  4602.64
                             4602.65  4602.67  4609.94  4609.95  4610.00
                             4628.28  4628.33  4628.38

 Zero-point correction=                           0.356337 (Hartree/Particle)
 Thermal correction to Energy=                    0.379729
 Thermal correction to Enthalpy=                  0.380673
 Thermal correction to Gibbs Free Energy=         0.300063
 Sum of electronic and zero-point Energies=          -1427.906007
 Sum of electronic and thermal Energies=             -1427.882615
 Sum of electronic and thermal Enthalpies=           -1427.881671
 Sum of electronic and thermal Free Energies=        -1427.962281

                     E (Thermal)             CV                S
                      KCal/Mol        Cal/Mol-Kelvin    Cal/Mol-Kelvin
 Total                  238.284             94.932            169.659
 Electronic               0.000              0.000              0.000
 Translational            0.889              2.981             44.060
 Rotational               0.889              2.981             37.892
 Vibrational            236.506             88.970             87.707
 Vibration     1          0.593              1.985              6.099
 Vibration     2          0.593              1.984              6.042
 Vibration     3          0.593              1.984              6.032
 Vibration     4          0.593              1.984              5.856
 Vibration     5          0.594              1.981              5.272
 Vibration     6          0.594              1.981              5.271
 Vibration     7          0.598              1.969              4.189
 Vibration     8          0.598              1.969              4.188
 Vibration     9          0.611              1.925              2.980
 Vibration    10          0.620              1.896              2.593
 Vibration    11          0.635              1.847              2.182
 Vibration    12          0.636              1.847              2.181
 Vibration    13          0.637              1.841              2.144
 Vibration    14          0.645              1.817              1.992
 Vibration    15          0.645              1.817              1.992
 Vibration    16          0.667              1.748              1.672
 Vibration    17          0.667              1.748              1.671
 Vibration    18          0.667              1.748              1.671
 Vibration    19          0.702              1.646              1.339
 Vibration    20          0.702              1.646              1.339
 Vibration    21          0.719              1.598              1.217
 Vibration    22          0.735              1.554              1.121
 Vibration    23          0.735              1.554              1.121
 Vibration    24          0.776              1.443              0.918
 Vibration    25          0.791              1.405              0.859
 Vibration    26          0.791              1.405              0.859
 Vibration    27          0.796              1.393              0.841
 Vibration    28          0.890              1.172              0.576
 Vibration    29          0.890              1.172              0.576
 Vibration    30          0.908              1.135              0.539
 Vibration    31          0.908              1.135              0.539
 Vibration    32          0.925              1.098              0.506
 Vibration    33          0.925              1.098              0.506
 Vibration    34          0.936              1.076              0.487
 Vibration    35          0.940              1.067              0.479
 Vibration    36          0.942              1.063              0.475
 Vibration    37          0.942              1.063              0.475
 Vibration    38          0.972              1.006              0.429

 Optimization completed.
    -- Stationary point found.
 Normal termination of Gaussian 16 at Sun Aug  2 09:19:47 2020.
