 Gaussian 16, Revision C.01,
 Gaussian 16:  ES64L-G16RevC.01  3-Jul-2019

 --------------------------------------------------------------------
 #P B3LYP/6-311++G(d,p) EmpiricalDispersion=GD3 freq(noraman) SCF=YQC
 --------------------------------------------------------------------

 ----------------------------------------------
 Restart from 2_Phenyl_BoronicAcid_Boroxine.log
 ----------------------------------------------
 Symbolic Z-matrix:
 Charge =  0 Multiplicity = 1

                         Standard orientation:
 ---------------------------------------------------------------------
 Center     Atomic      Atomic             Coordinates (Angstroms)
 Number     Number       Type             X           Y           Z
 ---------------------------------------------------------------------
      1          6           0        0.000001    1.412394   -0.000065
      2          6           0       -0.000001   -1.412394   -0.000065
      3          6           0       -1.208457    0.694952   -0.000066
      4          6           0        1.208457   -0.694952   -0.000066
      5          6           0       -1.208458   -0.694951   -0.000065
      6          6           0        1.208458    0.694951   -0.000065
      7          1           0        2.146282    1.239329   -0.000068
      8          1           0       -2.146282   -1.239329   -0.000068
      9          1           0        2.146281   -1.239331   -0.000068
     10          1           0       -2.146281    1.239331   -0.000068
     11          5           0        0.000001    2.960940   -0.000067
     12          8           0       -1.190787    3.670499   -0.000031
     13          5           0       -1.196961    5.044546    0.000051
     14          8           0        1.190788    3.670500   -0.000031
     15          5           0        1.196962    5.044547    0.000054
     16          8           0        0.000000    5.728252    0.000177
     17          1           0       -2.222962    5.638172    0.000096
     18          1           0        2.222963    5.638172    0.000103
     19          5           0       -0.000001   -2.960940   -0.000067
     20          8           0        1.190787   -3.670499   -0.000031
     21          5           0        1.196961   -5.044546    0.000051
     22          8           0       -1.190788   -3.670500   -0.000031
     23          5           0       -1.196962   -5.044547    0.000054
     24          8           0       -0.000000   -5.728252    0.000177
     25          1           0        2.222962   -5.638172    0.000096
     26          1           0       -2.222963   -5.638172    0.000103
 ---------------------------------------------------------------------

 SCF Done:  E(RB3LYP) =  -834.776539644     a.u. after    6 cycles
 SCF Done:  E(RB3LYP) =  -834.776556489     A.U. after    8 cycles

 The electronic state is 1-A.
 Alpha  occ. eigenvalues --  -19.15967 -19.15966 -19.15966 -19.15966 -19.15958
 Alpha  occ. eigenvalues --  -19.15958 -10.19042 -10.19041 -10.18986 -10.18984
 Alpha  occ. eigenvalues --  -10.17914 -10.17913  -6.81857  -6.81856  -6.81837
 Alpha  occ. eigenvalues --   -6.81837  -6.81836  -6.81836  -1.09305  -1.09305
 Alpha  occ. eigenvalues --   -1.03372  -1.03371  -1.03350  -1.03350  -0.86863
 Alpha  occ. eigenvalues --   -0.76398  -0.76178  -0.64145  -0.62773  -0.60961
 Alpha  occ. eigenvalues --   -0.60297  -0.60166  -0.58555  -0.55595  -0.54882
 Alpha  occ. eigenvalues --   -0.53229  -0.50877  -0.48906  -0.46933  -0.46879
 Alpha  occ. eigenvalues --   -0.46541  -0.46067  -0.43588  -0.41282  -0.41261
 Alpha  occ. eigenvalues --   -0.41032  -0.40951  -0.40873  -0.39789  -0.38979
 Alpha  occ. eigenvalues --   -0.38857  -0.38855  -0.37370  -0.36751  -0.35808
 Alpha  occ. eigenvalues --   -0.34784  -0.34303  -0.33999  -0.33282  -0.27773
 Alpha  occ. eigenvalues --   -0.27112
 Alpha virt. eigenvalues --   -0.08383  -0.03433  -0.03157  -0.02371  -0.01707
 Alpha virt. eigenvalues --   -0.01061  -0.00063   0.00171   0.00842   0.01590
 Alpha virt. eigenvalues --    0.01776   0.02099   0.02568   0.02577   0.02633

 Mulliken charges:
               1
     1  C   -0.591501
     2  C   -0.591501
     3  C   -0.081857
     4  C   -0.081857
     5  C   -0.081856
     6  C   -0.081856
     7  H    0.205467
     8  H    0.205467
     9  H    0.205467
    10  H    0.205467
    11  B    0.768917
    12  O   -0.420001
    13  B    0.382034
    14  O   -0.420002
    15  B    0.382034
    16  O   -0.316700
    17  H   -0.016001
    18  H   -0.016001
    19  B    0.768917
    20  O   -0.420001
    21  B    0.382034
    22  O   -0.420002
    23  B    0.382034
    24  O   -0.316700
    25  H   -0.016001
    26  H   -0.016001
 Sum of Mulliken charges =   0.00000

 Dipole moment (field-independent basis, Debye):
    X=              0.0000    Y=              0.0000    Z=             -0.0004  Tot=              0.0004
 Quadrupole moment (field-independent basis, Debye-Ang):
   XX=           -102.8811   YY=           -113.4795   ZZ=            -99.4165
   XY=              0.0001   XZ=             -0.0000   YZ=              0.0000

  Exact polarizability:     157.188       0.000     242.751      -0.000      -0.000      88.870
 Approx polarizability:     245.952       0.000     293.504      -0.000       0.000     139.517

                      1                      2                      3
                      A                      A                      B
 Frequencies --     31.6752                42.2160                62.9189
 Red. masses --      7.8950                 5.1907                 6.8326
 Frc consts  --      0.0047                 0.0055                 0.0159
 IR Inten    --      0.0222                 0.0000                 0.0144

                      4                      5                      6
                      B                      B                      A
 Frequencies --     71.8633                75.2290               122.2814
 Red. masses --     11.2554                 3.9244                11.8915
 Frc consts  --      0.0342                 0.0131                 0.1048
 IR Inten    --      0.0000                 0.0000                 0.0224

                      7                      8                      9
                      A                      A                      A
 Frequencies --    136.4282               190.4871               218.4361
 Red. masses --      5.9212                10.7577                 2.9967
 Frc consts  --      0.0649                 0.2300                 0.0842
 IR Inten    --      0.0000                 0.0000                 0.0000

                     10                     11                     12
                      B                      B                      A
 Frequencies --    219.1460               223.5926               318.6794
 Red. masses --      3.0232                 6.1177                 2.2991
 Frc consts  --      0.0855                 0.1802                 0.1376
 IR Inten    --      0.0000                 0.0000                 0.7706

                     13                     14                     15
                      B                      B                      B
 Frequencies --    341.6118               348.4149               365.6627
 Red. masses --      2.3585                 7.7487                 8.6435
 Frc consts  --      0.1622                 0.5542                 0.6809
 IR Inten    --      0.0000                 0.3701                 7.2536

                     16                     17                     18
                      A                      A                      A
 Frequencies --    418.0968               426.1577               472.0333
 Red. masses --      2.7898                 5.0410                 3.7757
 Frc consts  --      0.2873                 0.5394                 0.4957
 IR Inten    --      0.0000                 0.0000                 0.3815

                     19                     20                     21
                      A                      B                      A
 Frequencies --    548.1184               548.4353               557.0279
 Red. masses --      9.6793                 9.8449                 9.8912
 Frc consts  --      1.7133                 1.7447                 1.8082
 IR Inten    --      0.0000                31.4672                 0.0000

                     22                     23                     24
                      B                      A                      B
 Frequencies --    622.1029               647.4500               672.3530
 Red. masses --      7.3919                 7.0647                 5.8426
 Frc consts  --      1.6855                 1.7448                 1.5562
 IR Inten    --     53.9270                 0.0000                 0.0000

                     25                     26                     27
                      A                      A                      B
 Frequencies --    708.5242               752.6437               782.6622
 Red. masses --      3.4232                 6.3786                 5.2381
 Frc consts  --      1.0125                 2.1289                 1.8905
 IR Inten    --     98.2476                 0.0000                 0.0000

                     28                     29                     30
                      B                      A                      A
 Frequencies --    810.1950               810.5305               871.7373
 Red. masses --     15.7667                15.7509                 1.6534
 Frc consts  --      6.0978                 6.0967                 0.7403
 IR Inten    --      5.5021                 0.0000                11.5325

                     31                     32                     33
                      B                      B                      A
 Frequencies --    886.4045               919.2756               919.2919
 Red. masses --      1.2437                 1.6122                 1.6125
 Frc consts  --      0.5758                 0.8027                 0.8029
 IR Inten    --      0.0000                 0.0000                 0.0000

                     34                     35                     36
                      B                      A                      B
 Frequencies --    921.7546               922.1643               984.8757
 Red. masses --      1.8416                 1.8418                 1.8164
 Frc consts  --      0.9219                 0.9228                 1.0381
 IR Inten    --      0.0000               200.2665                23.6370

                     37                     38                     39
                      A                      B                      A
 Frequencies --    985.7152              1005.8379              1008.9147
 Red. masses --      1.8490                 1.3050                 5.6129
 Frc consts  --      1.0585                 0.7779                 3.3662
 IR Inten    --      0.0000                 0.0000                 0.0000

                     40                     41                     42
                      B                      A                      B
 Frequencies --   1011.5170              1018.3955              1043.5804
 Red. masses --      6.4092                 1.3962                 1.7641
 Frc consts  --      3.8636                 0.8532                 1.1320
 IR Inten    --     43.0688                 0.0000                 2.2571

                     43                     44                     45
                      A                      B                      B
 Frequencies --   1049.4148              1052.4348              1134.8440
 Red. masses --      1.6823                 2.2532                 1.5525
 Frc consts  --      1.0915                 1.4704                 1.1780
 IR Inten    --      0.0000                 5.0494                 4.4634

                     46                     47                     48
                      B                      A                      A
 Frequencies --   1146.8528              1147.4529              1170.1811
 Red. masses --      7.3530                 9.2422                 2.5220
 Frc consts  --      5.6981                 7.1696                 2.0347
 IR Inten    --      1.7204                 0.0000                 0.0000

                     49                     50                     51
                      B                      A                      B
 Frequencies --   1176.1393              1188.6165              1189.0677
 Red. masses --      2.2335                 2.6510                 2.5037
 Frc consts  --      1.8203                 2.2067                 2.0857
 IR Inten    --     95.4057                 0.0000                40.3369

                     52                     53                     54
                      A                      B                      B
 Frequencies --   1221.1077              1310.1415              1326.9183
 Red. masses --      1.1437                10.3400                 3.5768
 Frc consts  --      1.0048                10.4570                 3.7105
 IR Inten    --      0.0000               203.6237               757.4125

                     55                     56                     57
                      A                      A                      A
 Frequencies --   1334.8953              1338.0655              1364.5975
 Red. masses --      1.3476                 6.1602                 7.9297
 Frc consts  --      1.4148                 6.4983                 8.6999
 IR Inten    --      0.0000                 0.0000                 0.0000

                     58                     59                     60
                      B                      B                      A
 Frequencies --   1372.1260              1372.2044              1404.6125
 Red. masses --      7.2098                 6.9272                 9.0446
 Frc consts  --      7.9976                 7.6850                10.5136
 IR Inten    --    924.4551              3553.9986                 0.0000

                     61                     62                     63
                      B                      B                      A
 Frequencies --   1422.6842              1540.6647              1577.2624
 Red. masses --      2.5891                 2.4461                 5.9171
 Frc consts  --      3.0876                 3.4208                 8.6730
 IR Inten    --    165.8680                98.9953                 0.0000

                     64                     65                     66
                      A                      A                      B
 Frequencies --   1652.9199              2678.6948              2678.8324
 Red. masses --      5.4933                 1.0959                 1.0960
 Frc consts  --      8.8427                 4.6332                 4.6339
 IR Inten    --      0.0000                 0.0000               430.6711

                     67                     68                     69
                      B                      A                      B
 Frequencies --   2687.6354              2688.6177              3167.6818
 Red. masses --      1.1022                 1.1025                 1.0881
 Frc consts  --      4.6908                 4.6957                 6.4328
 IR Inten    --    274.3602                 0.0000                 2.1078

                     70                     71                     72
                      A                      B                      A
 Frequencies --   3168.1779              3183.3797              3185.5085
 Red. masses --      1.0870                 1.0939                 1.0954
 Frc consts  --      6.4281                 6.5312                 6.5494
 IR Inten    --      0.0000                17.2634                 0.0000

 - Thermochemistry -
 -------------------
 Temperature   298.150 Kelvin.  Pressure   1.00000 Atm.
 Atom     1 has atomic number  6 and mass  12.00000

 Molecular mass:   242.08792 amu.
 Principal axes and moments of inertia in atomic units:
                           1         2         3
     Eigenvalues --   937.05940********************
           X            0.00000   1.00000   0.00000
           Y            1.00000  -0.00000   0.00000
           Z            0.00000   0.00000   1.00000
 This molecule is an asymmetric top.
 Rotational symmetry number  2.
 Warning -- assumption of classical behavior for rotation
           may cause significant error
 Rotational temperatures (Kelvin)      0.09243     0.00707     0.00657
 Rotational constants (GHZ):           1.92596     0.14731     0.13684
 Zero-point vibrational energy     454438.4 (Joules/Mol)
                                  108.61339 (Kcal/Mol)
 Warning -- explicit consideration of  21 degrees of freedom as
           vibrations may cause significant error
 Vibrational temperatures:     45.57    60.74    90.53   103.40   108.24
          (Kelvin)            175.94   196.29   274.07   314.28   315.30
                              321.70   458.51   491.50   501.29   526.11
                              601.55   613.15   679.15   788.62   789.08
                              801.44   895.07   931.54   967.37  1019.41
                             1082.89  1126.08  1165.69  1166.17  1254.24
                             1275.34  1322.63  1322.66  1326.20  1326.79
                             1417.02  1418.22  1447.18  1451.60  1455.35
                             1465.24  1501.48  1509.87  1514.22  1632.79
                             1650.07  1650.93  1683.63  1692.20  1710.15
                             1710.80  1756.90  1885.00  1909.14  1920.62
                             1925.18  1963.35  1974.18  1974.30  2020.92
                             2046.93  2216.67  2269.33  2378.18  3854.04
                             3854.24  3866.91  3868.32  4557.59  4558.30
                             4580.17  4583.24

 Zero-point correction=                           0.173086 (Hartree/Particle)
 Thermal correction to Energy=                    0.188127
 Thermal correction to Enthalpy=                  0.189072
 Thermal correction to Gibbs Free Energy=         0.129620
 Sum of electronic and zero-point Energies=           -834.603470
 Sum of electronic and thermal Energies=              -834.588429
 Sum of electronic and thermal Enthalpies=            -834.587485
 Sum of electronic and thermal Free Energies=         -834.646937

                     E (Thermal)             CV                S
                      KCal/Mol        Cal/Mol-Kelvin    Cal/Mol-Kelvin
 Total                  118.052             56.413            125.127
 Electronic               0.000              0.000              0.000
 Translational            0.889              2.981             42.353
 Rotational               0.889              2.981             32.004
 Vibrational            116.274             50.451             50.769
 Vibration     1          0.594              1.983              5.722
 Vibration     2          0.595              1.980              5.152
 Vibration     3          0.597              1.972              4.363
 Vibration     4          0.598              1.967              4.102
 Vibration     5          0.599              1.966              4.012
 Vibration     6          0.610              1.931              3.064
 Vibration     7          0.614              1.917              2.853
 Vibration     8          0.634              1.853              2.223
 Vibration     9          0.646              1.813              1.972
 Vibration    10          0.647              1.812              1.966
 Vibration    11          0.649              1.805              1.930
 Vibration    12          0.705              1.638              1.317
 Vibration    13          0.721              1.592              1.205
 Vibration    14          0.726              1.578              1.173
 Vibration    15          0.739              1.543              1.098
 Vibration    16          0.781              1.431              0.898
 Vibration    17          0.788              1.413              0.871
 Vibration    18          0.829              1.312              0.732
 Vibration    19          0.903              1.144              0.548
 Vibration    20          0.904              1.143              0.547
 Vibration    21          0.913              1.124              0.530

 Optimization completed.
    -- Stationary point found.
 Normal termination of Gaussian 16 at Sun Aug  2 07:59:19 2020.
