 Gaussian 16, Revision C.01,
 Gaussian 16:  ES64L-G16RevC.01  3-Jul-2019

 ----------------------------------------------------------------------
 #P B3LYP/6-311++G(d,p) EmpiricalDispersion=GD3 freq(noraman) SCF=YQC N
 oSymm
 ----------------------------------------------------------------------

 --------------------------------------------
 Restart from Pyrene_AmineBorane_Borazine.log
 --------------------------------------------
 Symbolic Z-matrix:
 Charge =  0 Multiplicity = 1

                          Input orientation:
 ---------------------------------------------------------------------
 Center     Atomic      Atomic             Coordinates (Angstroms)
 Number     Number       Type             X           Y           Z
 ---------------------------------------------------------------------
      1          6           0       -0.006371    3.528143    0.017951
      2          6           0       -1.195895    2.826864   -0.182683
      3          6           0       -1.217890    1.426707   -0.187978
      4          6           0       -0.001212    0.711165    0.003613
      5          6           0        1.212842    1.429168    0.202493
      6          6           0        1.185715    2.829217    0.211460
      7          1           0       -2.115626    3.376997   -0.345604
      8          1           0        2.103427    3.381028    0.379994
      9          6           0        0.001391   -0.711177   -0.003612
     10          6           0       -1.212662   -1.429181   -0.202492
     11          6           0       -1.185536   -2.829230   -0.211458
     12          6           0        0.006551   -3.528156   -0.017949
     13          6           0        1.196074   -2.826877    0.182685
     14          6           0        1.218069   -1.426719    0.187980
     15          1           0       -2.103248   -3.381041   -0.379993
     16          1           0        2.115806   -3.377009    0.345606
     17          6           0        2.425064    0.682272    0.398062
     18          6           0        2.427551   -0.677420    0.391156
     19          1           0        3.349047    1.229955    0.551614
     20          1           0        3.353535   -1.223252    0.539152
     21          6           0       -2.427372    0.677408   -0.391155
     22          6           0       -2.424885   -0.682284   -0.398060
     23          1           0       -3.353356    1.223240   -0.539150
     24          1           0       -3.348868   -1.229968   -0.551612
     25          7           0       -0.009010    4.961169    0.025317
     26          5           0       -0.922310    5.671959    0.885406
     27          5           0        0.901466    5.684130   -0.827597
     28          1           0       -1.666111    5.079605    1.599844
     29          7           0       -0.900710    7.100081    0.865003
     30          1           0        1.647699    5.101899   -1.547798
     31          7           0        0.874192    7.111884   -0.792945
     32          5           0       -0.014766    7.860017    0.039779
     33          1           0       -1.535888    7.591642    1.475499
     34          1           0        1.507272    7.612037   -1.398623
     35          1           0       -0.017101    9.051257    0.045758
     36          7           0        0.009189   -4.961181   -0.025315
     37          5           0        0.922489   -5.671973   -0.885403
     38          5           0       -0.901292   -5.684142    0.827595
     39          1           0        1.666298   -5.079619   -1.599834
     40          7           0        0.900885   -7.100094   -0.865004
     41          1           0       -1.647522   -5.101911    1.547798
     42          7           0       -0.874023   -7.111896    0.792939
     43          5           0        0.014934   -7.860030   -0.039785
     44          1           0        1.536061   -7.591656   -1.475500
     45          1           0       -1.507108   -7.612048    1.398611
     46          1           0        0.017266   -9.051270   -0.045766
 ---------------------------------------------------------------------

 SCF Done:  E(RB3LYP) =  -1099.02655520     a.u. after    7 cycles
 SCF Done:  E(RB3LYP) =  -1099.02655973     A.U. after    9 cycles

 Alpha  occ. eigenvalues --  -14.31564 -14.31564 -14.30465 -14.30465 -14.30465
 Alpha  occ. eigenvalues --  -14.30465 -10.21731 -10.21731 -10.18963 -10.18962
 Alpha  occ. eigenvalues --  -10.18961 -10.18960 -10.18618 -10.18573 -10.18135
 Alpha  occ. eigenvalues --  -10.18135 -10.18065 -10.18065 -10.17746 -10.17746
 Alpha  occ. eigenvalues --  -10.17746 -10.17746  -6.75115  -6.75115  -6.75115
 Alpha  occ. eigenvalues --   -6.75115  -6.75067  -6.75067  -0.92588  -0.92439
 Alpha  occ. eigenvalues --   -0.89737  -0.88367  -0.87573  -0.85069  -0.85069
 Alpha  occ. eigenvalues --   -0.83861  -0.83677  -0.78213  -0.77359  -0.75171
 Alpha  occ. eigenvalues --   -0.71911  -0.71821  -0.64199  -0.63077  -0.62952
 Alpha  occ. eigenvalues --   -0.61925  -0.57875  -0.55607  -0.55143  -0.54779
 Alpha  occ. eigenvalues --   -0.54693  -0.54013  -0.52199  -0.52183  -0.51410
 Alpha  occ. eigenvalues --   -0.51024  -0.49268  -0.46848  -0.46700  -0.45895
 Alpha  occ. eigenvalues --   -0.44974  -0.44965  -0.44920  -0.44549  -0.44074
 Alpha  occ. eigenvalues --   -0.42731  -0.41767  -0.41529  -0.40695  -0.40012
 Alpha  occ. eigenvalues --   -0.39964  -0.39853  -0.38939  -0.38535  -0.37944
 Alpha  occ. eigenvalues --   -0.36939  -0.36396  -0.34953  -0.34805  -0.33799
 Alpha  occ. eigenvalues --   -0.33710  -0.33600  -0.33454  -0.32588  -0.31732
 Alpha  occ. eigenvalues --   -0.29622  -0.29380  -0.29376  -0.28151  -0.27119
 Alpha  occ. eigenvalues --   -0.26061  -0.22315  -0.20713
 Alpha virt. eigenvalues --   -0.06746  -0.03453  -0.01943  -0.00988  -0.00739
 Alpha virt. eigenvalues --   -0.00717  -0.00657  -0.00502  -0.00352   0.00101
 Alpha virt. eigenvalues --    0.00273   0.00312   0.00589   0.00875   0.01726

 Mulliken charges:
               1
     1  C   -0.372780
     2  C   -0.203827
     3  C    0.547338
     4  C   -0.061663
     5  C    0.547208
     6  C   -0.203562
     7  H    0.171554
     8  H    0.171600
     9  C   -0.061663
    10  C    0.547211
    11  C   -0.203558
    12  C   -0.372784
    13  C   -0.203828
    14  C    0.547336
    15  H    0.171599
    16  H    0.171554
    17  C   -0.368709
    18  C   -0.368627
    19  H    0.137366
    20  H    0.137378
    21  C   -0.368624
    22  C   -0.368705
    23  H    0.137378
    24  H    0.137366
    25  N   -0.400876
    26  B    0.242182
    27  B    0.242102
    28  H   -0.075773
    29  N   -0.486844
    30  H   -0.075744
    31  N   -0.486862
    32  B    0.389445
    33  H    0.283942
    34  H    0.283936
    35  H   -0.048788
    36  N   -0.400876
    37  B    0.242181
    38  B    0.242102
    39  H   -0.075773
    40  N   -0.486845
    41  H   -0.075744
    42  N   -0.486862
    43  B    0.389445
    44  H    0.283942
    45  H    0.283936
    46  H   -0.048787
 Sum of Mulliken charges =   0.00000

 Dipole moment (field-independent basis, Debye):
    X=             -0.0000    Y=             -0.0000    Z=             -0.0000  Tot=              0.0000
 Quadrupole moment (field-independent basis, Debye-Ang):
   XX=           -149.2778   YY=           -137.2940   ZZ=           -166.6842
   XY=             -0.0198   XZ=             -1.4168   YZ=              0.1413

  Exact polarizability:     287.047      -0.499     569.990      -6.353       1.964     179.975
 Approx polarizability:     516.686      -0.527     785.292       5.165       2.513     291.592

                      1                      2                      3
                      A                      A                      A
 Frequencies --     21.9891                42.2811                49.7377
 Red. masses --      6.2035                 3.8846                 5.3915
 Frc consts  --      0.0018                 0.0041                 0.0079
 IR Inten    --      0.2845                 0.7359                 0.4084

                      4                      5                      6
                      A                      A                      A
 Frequencies --     50.8565                59.4059                81.9198
 Red. masses --      4.1965                 5.4954                 4.8103
 Frc consts  --      0.0064                 0.0114                 0.0190
 IR Inten    --      0.0000                 0.0000                 0.0000

                      7                      8                      9
                      A                      A                      A
 Frequencies --    122.1965               160.9115               183.2877
 Red. masses --      5.1450                 4.3569                 7.0356
 Frc consts  --      0.0453                 0.0665                 0.1393
 IR Inten    --      1.0619                 1.2501                 0.0000

                     10                     11                     12
                      A                      A                      A
 Frequencies --    193.1234               211.3745               215.0162
 Red. masses --      3.7470                 4.4960                 4.2015
 Frc consts  --      0.0823                 0.1184                 0.1144
 IR Inten    --      1.0727                 0.0000                 3.6490

                     13                     14                     15
                      A                      A                      A
 Frequencies --    254.1987               260.2814               280.5883
 Red. masses --      3.5678                 3.8288                 4.6817
 Frc consts  --      0.1358                 0.1528                 0.2172
 IR Inten    --      0.0000                 0.0000                 0.3342

                     16                     17                     18
                      A                      A                      A
 Frequencies --    290.0651               292.9547               318.1339
 Red. masses --      2.8867                 3.5835                 4.6180
 Frc consts  --      0.1431                 0.1812                 0.2754
 IR Inten    --      0.0000                 8.8858                 0.4295

                     19                     20                     21
                      A                      A                      A
 Frequencies --    352.7757               387.1618               405.5151
 Red. masses --      4.9552                 4.1472                 3.5549
 Frc consts  --      0.3633                 0.3663                 0.3444
 IR Inten    --      0.6048                 0.0000                 0.5216

                     22                     23                     24
                      A                      A                      A
 Frequencies --    418.5121               421.8603               432.8208
 Red. masses --      1.9953                 2.9294                 3.2409
 Frc consts  --      0.2059                 0.3072                 0.3577
 IR Inten    --     26.5092                 0.0000                 0.0000

                     25                     26                     27
                      A                      A                      A
 Frequencies --    473.9055               478.7570               502.7452
 Red. masses --      8.4422                 7.5011                 5.3305
 Frc consts  --      1.1171                 1.0130                 0.7938
 IR Inten    --      0.0000                 0.0000                 2.3722

                     28                     29                     30
                      A                      A                      A
 Frequencies --    507.9176               514.6273               530.9826
 Red. masses --      4.1366                 5.0784                 6.7544
 Frc consts  --      0.6288                 0.7924                 1.1220
 IR Inten    --      0.0000                 9.0397                 0.3205

                     31                     32                     33
                      A                      A                      A
 Frequencies --    532.4978               537.5248               550.7365
 Red. masses --      6.6315                 3.0192                 4.5410
 Frc consts  --      1.1079                 0.5140                 0.8115
 IR Inten    --      0.0000                 0.0000                 0.0000

                     34                     35                     36
                      A                      A                      A
 Frequencies --    585.7437               585.8549               601.5485
 Red. masses --      7.1184                 7.2755                 6.1225
 Frc consts  --      1.4389                 1.4713                 1.3053
 IR Inten    --      0.0000                12.8651                 7.4290

                     37                     38                     39
                      A                      A                      A
 Frequencies --    629.6298               662.6333               669.1471
 Red. masses --      3.5096                 5.9412                 3.1790
 Frc consts  --      0.8197                 1.5370                 0.8387
 IR Inten    --      0.8479                 0.0000                 0.0000

                     40                     41                     42
                      A                      A                      A
 Frequencies --    681.6867               707.7079               707.7447
 Red. masses --      4.2146                 1.1632                 1.1629
 Frc consts  --      1.1539                 0.3433                 0.3432
 IR Inten    --      0.1043                 0.1334                 0.0011

                     43                     44                     45
                      A                      A                      A
 Frequencies --    720.7005               722.8249               723.6187
 Red. masses --      2.7800                 1.2446                 1.2495
 Frc consts  --      0.8508                 0.3831                 0.3855
 IR Inten    --     30.5030                 0.0010                95.9183

                     46                     47                     48
                      A                      A                      A
 Frequencies --    775.5788               783.1393               807.3895
 Red. masses --      6.8490                 7.3886                 5.3505
 Frc consts  --      2.4273                 2.6699                 2.0550
 IR Inten    --      0.0000                23.7674                 0.0000

                     49                     50                     51
                      A                      A                      A
 Frequencies --    809.4330               813.8018               844.6732
 Red. masses --      1.3490                 1.5313                 7.7446
 Frc consts  --      0.5207                 0.5975                 3.2556
 IR Inten    --      0.0000                18.1165                 0.0000

                     52                     53                     54
                      A                      A                      A
 Frequencies --    846.4476               885.6016               886.7322
 Red. masses --      5.4491                 1.5936                 1.4047
 Frc consts  --      2.3003                 0.7364                 0.6508
 IR Inten    --      1.9573                 0.0000                 0.1904

                     55                     56                     57
                      A                      A                      A
 Frequencies --    895.3281               902.0148               914.8839
 Red. masses --      1.7049                 1.4902                 1.5832
 Frc consts  --      0.8052                 0.7143                 0.7808
 IR Inten    --     40.9479                 0.0000                22.4439

                     58                     59                     60
                      A                      A                      A
 Frequencies --    915.2256               918.9259               919.1244
 Red. masses --      1.5797                 1.4863                 1.4933
 Frc consts  --      0.7796                 0.7395                 0.7433
 IR Inten    --      0.0000                 0.0159                 0.0000

                     61                     62                     63
                      A                      A                      A
 Frequencies --    926.1210               926.1462               928.3966
 Red. masses --      1.5374                 1.5353                 3.2387
 Frc consts  --      0.7769                 0.7759                 1.6447
 IR Inten    --      0.0576               254.7581                16.3699

                     64                     65                     66
                      A                      A                      A
 Frequencies --    929.3595               946.9995               948.0635
 Red. masses --      3.1387                 3.0433                 2.8504
 Frc consts  --      1.5972                 1.6081                 1.5095
 IR Inten    --      0.0000                 0.0000                 4.5299

                     67                     68                     69
                      A                      A                      A
 Frequencies --    967.1718               967.1964               981.2703
 Red. masses --      1.4633                 1.4568                 1.3009
 Frc consts  --      0.8065                 0.8029                 0.7380
 IR Inten    --      2.9268                 0.0000                 0.0445

                     70                     71                     72
                      A                      A                      A
 Frequencies --    984.1405              1013.1878              1014.7285
 Red. masses --      1.2989                 6.0043                 7.4031
 Frc consts  --      0.7412                 3.6315                 4.4912
 IR Inten    --      0.0000                 0.9798                10.1635

                     73                     74                     75
                      A                      A                      A
 Frequencies --   1042.2883              1063.2943              1063.7994
 Red. masses --      2.7275                 2.1176                 1.0864
 Frc consts  --      1.7458                 1.4106                 0.7243
 IR Inten    --      0.0000                10.4181                 0.4115

                     76                     77                     78
                      A                      A                      A
 Frequencies --   1063.8208              1097.7743              1101.3560
 Red. masses --      1.0863                 1.2991                 1.4066
 Frc consts  --      0.7243                 0.9224                 1.0053
 IR Inten    --      0.0001                 0.0000                 3.3213

                     79                     80                     81
                      A                      A                      A
 Frequencies --   1140.6265              1169.6524              1183.4812
 Red. masses --      2.7180                 1.6006                 1.5022
 Frc consts  --      2.0835                 1.2902                 1.2397
 IR Inten    --      0.0000                 0.0000                17.2673

                     82                     83                     84
                      A                      A                      A
 Frequencies --   1199.5600              1202.7827              1211.7038
 Red. masses --      1.8177                 1.7047                 1.5279
 Frc consts  --      1.5410                 1.4531                 1.3217
 IR Inten    --      0.0000                 4.6838                21.0330

                     85                     86                     87
                      A                      A                      A
 Frequencies --   1212.2765              1218.8093              1219.2293
 Red. masses --      1.4232                 9.2359                 8.5380
 Frc consts  --      1.2323                 8.0835                 7.4779
 IR Inten    --      0.0000                 0.0000                 5.8827

                     88                     89                     90
                      A                      A                      A
 Frequencies --   1230.8192              1265.9496              1317.2993
 Red. masses --      1.6960                 1.4589                 2.2549
 Frc consts  --      1.5138                 1.3775                 2.3054
 IR Inten    --      1.2568                 0.0000                31.4866

                     91                     92                     93
                      A                      A                      A
 Frequencies --   1319.6106              1341.8097              1357.8050
 Red. masses --      6.8587                 3.6405                 2.8537
 Frc consts  --      7.0369                 3.8618                 3.0998
 IR Inten    --      0.0000                 4.5457                 0.0000

                     94                     95                     96
                      A                      A                      A
 Frequencies --   1364.5680              1365.8140              1393.3203
 Red. masses --      1.6588                 1.7008                 2.3144
 Frc consts  --      1.8199                 1.8694                 2.6472
 IR Inten    --      0.0000                 3.7825               838.4302

                     97                     98                     99
                      A                      A                      A
 Frequencies --   1397.1397              1401.7522              1403.5784
 Red. masses --      2.3743                 8.5225                 1.9876
 Frc consts  --      2.7306                 9.8664                 2.3070
 IR Inten    --      0.0000                 0.0000                 0.0000

                    100                    101                    102
                      A                      A                      A
 Frequencies --   1419.6667              1442.3494              1444.0339
 Red. masses --      3.2914                 3.9609                 7.0408
 Frc consts  --      3.9085                 4.8549                 8.6502
 IR Inten    --    251.6027                 0.0000                 0.0000

                    103                    104                    105
                      A                      A                      A
 Frequencies --   1449.3667              1475.3253              1481.1181
 Red. masses --      3.9232                 4.5129                 3.2421
 Frc consts  --      4.8556                 5.7874                 4.1904
 IR Inten    --    510.4854               132.4691              2066.0321

                    106                    107                    108
                      A                      A                      A
 Frequencies --   1484.5887              1490.8583              1490.9621
 Red. masses --      3.3886                 8.3255                 2.6450
 Frc consts  --      4.4003                10.9027                 3.4642
 IR Inten    --      0.0000                12.8166                 5.5979

                    109                    110                    111
                      A                      A                      A
 Frequencies --   1509.9484              1607.4154              1619.5276
 Red. masses --      4.0287                 4.4647                 8.1110
 Frc consts  --      5.4117                 6.7967                12.5343
 IR Inten    --      0.0000                 0.0000                 0.0000

                    112                    113                    114
                      A                      A                      A
 Frequencies --   1636.9465              1643.7718              1669.7569
 Red. masses --      6.3572                 5.8027                 7.0003
 Frc consts  --     10.0365                 9.2377                11.4993
 IR Inten    --      1.1709               184.3962                 0.0000

                    115                    116                    117
                      A                      A                      A
 Frequencies --   2618.3865              2618.6962              2627.9232
 Red. masses --      1.0998                 1.0999                 1.0974
 Frc consts  --      4.4426                 4.4440                 4.4650
 IR Inten    --    652.6142                 0.0000                 0.0005

                    118                    119                    120
                      A                      A                      A
 Frequencies --   2628.1249              2635.7534              2635.8714
 Red. masses --      1.0974                 1.1004                 1.1004
 Frc consts  --      4.4660                 4.5040                 4.5046
 IR Inten    --    360.3660                 8.5258                 0.0001

                    121                    122                    123
                      A                      A                      A
 Frequencies --   3154.3024              3154.4211              3172.3873
 Red. masses --      1.0863                 1.0862                 1.0942
 Frc consts  --      6.3681                 6.3682                 6.4884
 IR Inten    --      0.0001                 1.6269                10.9438

                    124                    125                    126
                      A                      A                      A
 Frequencies --   3172.7544              3174.7287              3175.7683
 Red. masses --      1.0948                 1.0903                 1.0922
 Frc consts  --      6.4932                 6.4747                 6.4898
 IR Inten    --      0.0000                 0.0001                45.2708

                    127                    128                    129
                      A                      A                      A
 Frequencies --   3175.8111              3177.1771              3628.8553
 Red. masses --      1.0910                 1.0920                 1.0765
 Frc consts  --      6.4830                 6.4944                 8.3520
 IR Inten    --     22.3783                 0.0000                63.9818

                    130                    131                    132
                      A                      A                      A
 Frequencies --   3628.9049              3630.0520              3630.0648
 Red. masses --      1.0765                 1.0758                 1.0758
 Frc consts  --      8.3524                 8.3526                 8.3527
 IR Inten    --      0.6690                19.8812                83.3555

 - Thermochemistry -
 -------------------
 Temperature   298.150 Kelvin.  Pressure   1.00000 Atm.
 Atom     1 has atomic number  6 and mass  12.00000

 Molecular mass:   360.21513 amu.
 Principal axes and moments of inertia in atomic units:
                           1         2         3
     Eigenvalues --  2456.45121********************
           X           -0.00187   0.99946   0.03275
           Y            0.99999   0.00203  -0.00501
           Z            0.00508  -0.03274   0.99945
 This molecule is an asymmetric top.
 Rotational symmetry number  1.
 Warning -- assumption of classical behavior for rotation
           may cause significant error
 Rotational temperatures (Kelvin)      0.03526     0.00312     0.00294
 Rotational constants (GHZ):           0.73469     0.06505     0.06123
 Zero-point vibrational energy     923769.0 (Joules/Mol)
                                  220.78610 (Kcal/Mol)
 Warning -- explicit consideration of  36 degrees of freedom as
           vibrations may cause significant error
 Vibrational temperatures:     31.64    60.83    71.56    73.17    85.47
          (Kelvin)            117.86   175.81   231.52   263.71   277.86
                              304.12   309.36   365.74   374.49   403.70
                              417.34   421.50   457.72   507.57   557.04
                              583.45   602.15   606.96   622.73   681.84
                              688.82   723.34   730.78   740.43   763.97
                              766.15   773.38   792.39   842.75   842.91
                              865.49   905.90   953.38   962.75   980.80
                             1018.23  1018.29  1036.93  1039.98  1041.13
                             1115.88  1126.76  1161.65  1164.59  1170.88
                             1215.30  1217.85  1274.18  1275.81  1288.18
                             1297.80  1316.31  1316.81  1322.13  1322.41
                             1332.48  1332.52  1335.76  1337.14  1362.52
                             1364.05  1391.54  1391.58  1411.83  1415.96
                             1457.75  1459.97  1499.62  1529.84  1530.57
                             1530.60  1579.45  1584.61  1641.11  1682.87
                             1702.77  1725.90  1730.54  1743.37  1744.20
                             1753.59  1754.20  1770.87  1821.42  1895.30
                             1898.63  1930.56  1953.58  1963.31  1965.10
                             2004.68  2010.17  2016.81  2019.44  2042.58
                             2075.22  2077.64  2085.32  2122.66  2131.00
                             2135.99  2145.01  2145.16  2172.48  2312.71
                             2330.14  2355.20  2365.02  2402.41  3767.27
                             3767.72  3781.00  3781.29  3792.26  3792.43
                             4538.34  4538.51  4564.36  4564.89  4567.73
                             4569.22  4569.28  4571.25  5221.11  5221.18
                             5222.84  5222.85

 Zero-point correction=                           0.351845 (Hartree/Particle)
 Thermal correction to Energy=                    0.373185
 Thermal correction to Enthalpy=                  0.374130
 Thermal correction to Gibbs Free Energy=         0.301443
 Sum of electronic and zero-point Energies=          -1098.674715
 Sum of electronic and thermal Energies=             -1098.653374
 Sum of electronic and thermal Enthalpies=           -1098.652430
 Sum of electronic and thermal Free Energies=        -1098.725116

                     E (Thermal)             CV                S
                      KCal/Mol        Cal/Mol-Kelvin    Cal/Mol-Kelvin
 Total                  234.177             89.517            152.981
 Electronic               0.000              0.000              0.000
 Translational            0.889              2.981             43.538
 Rotational               0.889              2.981             35.950
 Vibrational            232.400             83.556             73.493
 Vibration     1          0.593              1.985              6.446
 Vibration     2          0.595              1.980              5.149
 Vibration     3          0.595              1.978              4.828
 Vibration     4          0.595              1.977              4.784
 Vibration     5          0.597              1.974              4.477
 Vibration     6          0.600              1.962              3.844
 Vibration     7          0.610              1.931              3.065
 Vibration     8          0.622              1.890              2.539
 Vibration     9          0.631              1.863              2.295
 Vibration    10          0.635              1.849              2.198
 Vibration    11          0.643              1.824              2.032
 Vibration    12          0.645              1.818              2.001
 Vibration    13          0.665              1.756              1.701
 Vibration    14          0.668              1.745              1.660
 Vibration    15          0.680              1.710              1.530
 Vibration    16          0.686              1.692              1.474
 Vibration    17          0.688              1.687              1.457
 Vibration    18          0.705              1.639              1.320
 Vibration    19          0.729              1.570              1.154
 Vibration    20          0.756              1.498              1.011
 Vibration    21          0.770              1.458              0.943
 Vibration    22          0.781              1.430              0.897
 Vibration    23          0.784              1.423              0.886
 Vibration    24          0.794              1.399              0.849
 Vibration    25          0.831              1.308              0.727
 Vibration    26          0.835              1.297              0.713
 Vibration    27          0.858              1.244              0.651
 Vibration    28          0.863              1.232              0.639
 Vibration    29          0.870              1.218              0.623
 Vibration    30          0.886              1.181              0.585
 Vibration    31          0.887              1.178              0.582
 Vibration    32          0.893              1.167              0.571
 Vibration    33          0.906              1.138              0.543
 Vibration    34          0.943              1.062              0.475
 Vibration    35          0.943              1.062              0.475
 Vibration    36          0.960              1.029              0.447

 Optimization completed.
    -- Stationary point found.
 Normal termination of Gaussian 16 at Sun Oct 18 08:20:14 2020.
