 Gaussian 16, Revision C.01,
 Gaussian 16:  ES64L-G16RevC.01  3-Jul-2019

 ----------------------------------------------------------------------
 #P B3LYP/6-311++G(d,p) EmpiricalDispersion=GD3 freq(noraman) SCF=YQC N
 oSymm
 ----------------------------------------------------------------------

 ----------------------------------------
 Restart from BiPhenyl_Aldehyde_Imine.log
 ----------------------------------------
 Symbolic Z-matrix:
 Charge =  0 Multiplicity = 1

                          Input orientation:
 ---------------------------------------------------------------------
 Center     Atomic      Atomic             Coordinates (Angstroms)
 Number     Number       Type             X           Y           Z
 ---------------------------------------------------------------------
      1          6           0       -0.021900    3.565905   -0.036578
      2          6           0        1.121028    2.858071   -0.441495
      3          6           0        1.126259    1.472999   -0.439583
      4          6           0       -0.006087    0.740098   -0.037804
      5          6           0       -1.145701    1.451988    0.363176
      6          6           0       -1.152081    2.841702    0.364462
      7          6           0        0.006087   -0.740099   -0.037804
      8          6           0       -1.126259   -1.473000   -0.439583
      9          6           0       -1.121028   -2.858072   -0.441495
     10          6           0        0.021900   -3.565906   -0.036577
     11          6           0        1.152081   -2.841704    0.364462
     12          6           0        1.145701   -1.451990    0.363176
     13          1           0       -1.992000   -3.416128   -0.762676
     14          1           0       -2.041004    3.373231    0.689476
     15          1           0        2.041004   -3.373233    0.689476
     16          1           0        1.992000    3.416127   -0.762676
     17          1           0       -2.008853   -0.943583   -0.779771
     18          1           0       -2.022810    0.913034    0.701799
     19          1           0        2.008853    0.943582   -0.779772
     20          1           0        2.022810   -0.913035    0.701798
     21          6           0        0.724228    9.955605   -0.425846
     22          6           0        1.850512    9.300317    0.075609
     23          6           0       -0.342825    9.207115   -0.920791
     24          6           0       -0.297588    7.815359   -0.899496
     25          6           0        0.826053    7.152015   -0.380281
     26          6           0        1.910700    7.911236    0.082922
     27          6           0       -0.060037    5.031314   -0.025408
     28          7           0        0.941834    5.752201   -0.352010
     29          1           0        2.689505    9.875158    0.451719
     30          1           0       -1.211056    9.707924   -1.334938
     31          1           0       -1.115537    7.238326   -1.315768
     32          1           0        2.785398    7.391141    0.455282
     33          1           0       -1.009659    5.479650    0.299394
     34          1           0        0.686079   11.038624   -0.445055
     35          6           0       -0.724228   -9.955606   -0.425846
     36          6           0       -1.850512   -9.300318    0.075610
     37          6           0        0.342825   -9.207116   -0.920791
     38          6           0        0.297588   -7.815360   -0.899496
     39          6           0       -0.826053   -7.152016   -0.380281
     40          6           0       -1.910700   -7.911237    0.082923
     41          6           0        0.060037   -5.031315   -0.025408
     42          7           0       -0.941834   -5.752203   -0.352009
     43          1           0       -2.689505   -9.875159    0.451720
     44          1           0        1.211056   -9.707925   -1.334938
     45          1           0        1.115536   -7.238327   -1.315767
     46          1           0       -2.785398   -7.391142    0.455283
     47          1           0        1.009659   -5.479651    0.299394
     48          1           0       -0.686079  -11.038625   -0.445054
 ---------------------------------------------------------------------

 SCF Done:  E(RB3LYP) =  -1112.62731184     a.u. after    6 cycles
 SCF Done:  E(RB3LYP) =  -1112.62733810     A.U. after   10 cycles

 Alpha  occ. eigenvalues --  -14.32029 -14.32029 -10.22879 -10.22879 -10.21323
 Alpha  occ. eigenvalues --  -10.21323 -10.20439 -10.20408 -10.19700 -10.19700
 Alpha  occ. eigenvalues --  -10.19393 -10.19393 -10.19078 -10.19078 -10.18975
 Alpha  occ. eigenvalues --  -10.18975 -10.18784 -10.18784 -10.18116 -10.18116
 Alpha  occ. eigenvalues --  -10.18008 -10.18008 -10.17979 -10.17979 -10.17746
 Alpha  occ. eigenvalues --  -10.17746 -10.17625 -10.17625  -0.94827  -0.94823
 Alpha  occ. eigenvalues --   -0.88940  -0.87110  -0.85563  -0.85250  -0.80729
 Alpha  occ. eigenvalues --   -0.77193  -0.76941  -0.76226  -0.75485  -0.75417
 Alpha  occ. eigenvalues --   -0.74844  -0.73343  -0.67974  -0.65005  -0.64065
 Alpha  occ. eigenvalues --   -0.62341  -0.61784  -0.61475  -0.60845  -0.59782
 Alpha  occ. eigenvalues --   -0.57294  -0.57131  -0.54096  -0.53747  -0.53064
 Alpha  occ. eigenvalues --   -0.50663  -0.49309  -0.49233  -0.48616  -0.46703
 Alpha  occ. eigenvalues --   -0.46574  -0.46151  -0.45766  -0.45227  -0.44456
 Alpha  occ. eigenvalues --   -0.44377  -0.44145  -0.43813  -0.43382  -0.42885
 Alpha  occ. eigenvalues --   -0.42865  -0.40880  -0.40504  -0.39262  -0.38578
 Alpha  occ. eigenvalues --   -0.37821  -0.37067  -0.37060  -0.36564  -0.36412
 Alpha  occ. eigenvalues --   -0.35756  -0.35600  -0.35279  -0.34572  -0.33709
 Alpha  occ. eigenvalues --   -0.29982  -0.29053  -0.27684  -0.27346  -0.27223
 Alpha  occ. eigenvalues --   -0.26206  -0.26178  -0.25231  -0.23443  -0.22474
 Alpha virt. eigenvalues --   -0.08796  -0.06287  -0.03076  -0.02769  -0.01910
 Alpha virt. eigenvalues --   -0.01896  -0.01642  -0.01041  -0.00735  -0.00237
 Alpha virt. eigenvalues --   -0.00118  -0.00063   0.00646   0.00981   0.01241

 Mulliken charges:
               1
     1  C    0.886223
     2  C   -0.415534
     3  C   -0.581548
     4  C    0.869699
     5  C   -0.670320
     6  C   -0.709532
     7  C    0.869700
     8  C   -0.581549
     9  C   -0.415534
    10  C    0.886220
    11  C   -0.709532
    12  C   -0.670321
    13  H    0.195932
    14  H    0.174684
    15  H    0.174684
    16  H    0.195932
    17  H    0.164060
    18  H    0.155289
    19  H    0.164060
    20  H    0.155288
    21  C   -0.423014
    22  C   -0.105631
    23  C   -0.030813
    24  C   -0.104287
    25  C   -0.340101
    26  C    0.118030
    27  C   -0.336702
    28  N    0.238943
    29  H    0.174235
    30  H    0.175349
    31  H    0.154363
    32  H    0.172842
    33  H    0.088153
    34  H    0.149680
    35  C   -0.423014
    36  C   -0.105631
    37  C   -0.030812
    38  C   -0.104288
    39  C   -0.340101
    40  C    0.118031
    41  C   -0.336700
    42  N    0.238943
    43  H    0.174235
    44  H    0.175349
    45  H    0.154363
    46  H    0.172842
    47  H    0.088153
    48  H    0.149681
 Sum of Mulliken charges =   0.00000

 Dipole moment (field-independent basis, Debye):
    X=              0.0000    Y=              0.0000    Z=              0.7344  Tot=              0.7344
 Quadrupole moment (field-independent basis, Debye-Ang):
   XX=           -152.3130   YY=           -152.9270   ZZ=           -171.7883
   XY=            -12.8749   XZ=             -0.0000   YZ=             -0.0000

  Exact polarizability:     288.749      47.764     771.521      -0.000      -0.000     181.974
 Approx polarizability:     532.717      54.322     887.449      -0.000      -0.000     301.413

                      1                      2                      3
                      A                      A                      A
 Frequencies --     13.2106                21.8523                25.6938
 Red. masses --      6.3612                 5.7996                 3.6955
 Frc consts  --      0.0007                 0.0016                 0.0014
 IR Inten    --      0.0006                 0.3155                 0.5292

                      4                      5                      6
                      A                      A                      A
 Frequencies --     39.5937                42.6712                54.2250
 Red. masses --      4.0608                 5.3486                 5.4401
 Frc consts  --      0.0038                 0.0057                 0.0094
 IR Inten    --      0.4309                 0.0082                 0.3431

                      7                      8                      9
                      A                      A                      A
 Frequencies --     74.5166                79.4381               103.1459
 Red. masses --      5.0174                 4.2709                 5.2112
 Frc consts  --      0.0164                 0.0159                 0.0327
 IR Inten    --      1.2736                 0.0671                 0.7004

                     10                     11                     12
                      A                      A                      A
 Frequencies --    116.2513               119.7942               155.8658
 Red. masses --      5.6268                 6.7656                 4.6573
 Frc consts  --      0.0448                 0.0572                 0.0667
 IR Inten    --      0.0790                 0.1340                 7.0291

                     13                     14                     15
                      A                      A                      A
 Frequencies --    199.8691               211.4986               224.5869
 Red. masses --      4.7304                 5.1734                 3.8959
 Frc consts  --      0.1113                 0.1363                 0.1158
 IR Inten    --      9.8426                 0.0206                 1.4655

                     16                     17                     18
                      A                      A                      A
 Frequencies --    263.5743               273.2477               324.2292
 Red. masses --      3.4302                 5.2521                 4.4975
 Frc consts  --      0.1404                 0.2310                 0.2786
 IR Inten    --      8.7614                 0.9656                 1.0075

                     19                     20                     21
                      A                      A                      A
 Frequencies --    344.7451               384.2717               407.5723
 Red. masses --      4.7977                 6.3330                 3.5197
 Frc consts  --      0.3360                 0.5510                 0.3445
 IR Inten    --      1.0683                 0.0702                 1.2114

                     22                     23                     24
                      A                      A                      A
 Frequencies --    410.9767               419.4128               421.2964
 Red. masses --      4.1257                 2.9801                 2.9722
 Frc consts  --      0.4106                 0.3089                 0.3108
 IR Inten    --      6.0716                 0.9701                 0.0041

                     25                     26                     27
                      A                      A                      A
 Frequencies --    425.6689               428.1841               486.9552
 Red. masses --      3.0369                 3.3136                 5.2397
 Frc consts  --      0.3242                 0.3579                 0.7320
 IR Inten    --      0.6920                 9.1455                 6.8839

                     28                     29                     30
                      A                      A                      A
 Frequencies --    502.2439               525.3212               538.6771
 Red. masses --      4.1284                 3.5193                 3.8763
 Frc consts  --      0.6136                 0.5722                 0.6627
 IR Inten    --      0.0468                 2.7345                16.9875

                     31                     32                     33
                      A                      A                      A
 Frequencies --    551.2098               557.4579               577.3302
 Red. masses --      5.5902                 2.9574                 2.4146
 Frc consts  --      1.0007                 0.5415                 0.4742
 IR Inten    --      6.7516                41.5828                 2.1621

                     34                     35                     36
                      A                      A                      A
 Frequencies --    600.5996               631.2876               631.4141
 Red. masses --      7.0534                 6.4633                 6.4786
 Frc consts  --      1.4991                 1.5176                 1.5218
 IR Inten    --      0.9779                 0.0288                 0.0000

                     37                     38                     39
                      A                      A                      A
 Frequencies --    645.0173               656.1284               668.9433
 Red. masses --      6.9199                 6.8137                 6.5470
 Frc consts  --      1.6963                 1.7283                 1.7261
 IR Inten    --      1.0155                 0.0182                 0.5457

                     40                     41                     42
                      A                      A                      A
 Frequencies --    704.8153               705.0109               736.5951
 Red. masses --      1.8633                 1.8169                 4.3675
 Frc consts  --      0.5454                 0.5321                 1.3962
 IR Inten    --     59.0996                11.6498                 6.6635

                     43                     44                     45
                      A                      A                      A
 Frequencies --    739.7001               758.2097               777.2078
 Red. masses --      3.6911                 2.7837                 2.1947
 Frc consts  --      1.1899                 0.9429                 0.7811
 IR Inten    --     14.6234                13.3444                21.0393

                     46                     47                     48
                      A                      A                      A
 Frequencies --    777.3819               835.8664               839.0137
 Red. masses --      2.0565                 3.9332                 1.4130
 Frc consts  --      0.7322                 1.6191                 0.5860
 IR Inten    --     40.6094                 0.2594                62.4651

                     49                     50                     51
                      A                      A                      A
 Frequencies --    841.8430               843.8614               845.5249
 Red. masses --      1.6801                 1.3770                 2.5545
 Frc consts  --      0.7015                 0.5777                 1.0760
 IR Inten    --      0.5275                 3.6887                 2.3979

                     52                     53                     54
                      A                      A                      A
 Frequencies --    850.3137               858.0093               876.2100
 Red. masses --      1.2924                 1.3448                 1.7635
 Frc consts  --      0.5506                 0.5833                 0.7977
 IR Inten    --      1.0408                10.2082                16.2553

                     55                     56                     57
                      A                      A                      A
 Frequencies --    887.5626               891.7821               925.6486
 Red. masses --      2.8788                 3.0698                 1.7119
 Frc consts  --      1.3362                 1.4384                 0.8642
 IR Inten    --     78.1583                 0.0001                 7.8125

                     58                     59                     60
                      A                      A                      A
 Frequencies --    925.7049               969.7089               973.6655
 Red. masses --      1.7314                 1.3313                 1.3687
 Frc consts  --      0.8742                 0.7376                 0.7645
 IR Inten    --     14.2393                 0.2849                 0.5457

                     61                     62                     63
                      A                      A                      A
 Frequencies --    979.0875               979.1329               996.1434
 Red. masses --      1.3620                 1.3619                 1.2973
 Frc consts  --      0.7693                 0.7693                 0.7585
 IR Inten    --      0.1277                 0.1893                 0.3222

                     64                     65                     66
                      A                      A                      A
 Frequencies --    996.2728               997.8060               998.6728
 Red. masses --      1.2970                 1.4165                 1.4089
 Frc consts  --      0.7585                 0.8309                 0.8279
 IR Inten    --      0.0864                 5.3406                 1.4552

                     67                     68                     69
                      A                      A                      A
 Frequencies --   1006.6290              1006.7082              1015.4157
 Red. masses --      1.9872                 1.9682                 3.0712
 Frc consts  --      1.1864                 1.1752                 1.8657
 IR Inten    --      5.8657                 5.7629                 1.8907

                     70                     71                     72
                      A                      A                      A
 Frequencies --   1015.4928              1020.1072              1035.7201
 Red. masses --      3.0348                 6.1382                 2.7648
 Frc consts  --      1.8439                 3.7634                 1.7474
 IR Inten    --      3.7063                27.8302                 0.0064

                     73                     74                     75
                      A                      A                      A
 Frequencies --   1045.9638              1046.1007              1050.3565
 Red. masses --      2.1312                 2.1144                 2.3454
 Frc consts  --      1.3737                 1.3633                 1.5245
 IR Inten    --     16.8896                 0.0001                 0.1533

                     76                     77                     78
                      A                      A                      A
 Frequencies --   1105.9802              1105.9840              1147.1764
 Red. masses --      1.5374                 1.5373                 1.3747
 Frc consts  --      1.1080                 1.1079                 1.0659
 IR Inten    --      1.3219                12.4665                 0.7492

                     79                     80                     81
                      A                      A                      A
 Frequencies --   1147.3609              1187.6461              1187.7300
 Red. masses --      1.5206                 1.1590                 1.1511
 Frc consts  --      1.1794                 0.9632                 0.9567
 IR Inten    --     16.1301                 0.0020                10.3809

                     82                     83                     84
                      A                      A                      A
 Frequencies --   1196.7840              1197.4987              1206.3925
 Red. masses --      1.4241                 1.3649                 1.3486
 Frc consts  --      1.2018                 1.1532                 1.1564
 IR Inten    --      0.1818                60.8734                 0.1026

                     85                     86                     87
                      A                      A                      A
 Frequencies --   1206.5517              1221.0292              1228.6008
 Red. masses --      1.2755                 1.8116                 1.7394
 Frc consts  --      1.0940                 1.5914                 1.5470
 IR Inten    --     68.7271                65.2035                 0.0630

                     88                     89                     90
                      A                      A                      A
 Frequencies --   1269.9661              1273.9306              1300.4696
 Red. masses --      2.5854                 2.4068                 4.1576
 Frc consts  --      2.4568                 2.3013                 4.1427
 IR Inten    --      1.0096                 0.0316                17.9424

                     91                     92                     93
                      A                      A                      A
 Frequencies --   1306.9236              1314.4359              1316.5197
 Red. masses --      3.8462                 3.1234                 2.9269
 Frc consts  --      3.8707                 3.1795                 2.9889
 IR Inten    --      0.0005                 0.0329                 1.5123

                     94                     95                     96
                      A                      A                      A
 Frequencies --   1331.6396              1341.0084              1341.1528
 Red. masses --      4.3802                 1.7125                 1.7224
 Frc consts  --      4.5763                 1.8144                 1.8253
 IR Inten    --      0.0116                 0.2699                47.4049

                     97                     98                     99
                      A                      A                      A
 Frequencies --   1351.1634              1351.1716              1410.9798
 Red. masses --      1.6171                 1.6235                 1.5243
 Frc consts  --      1.7394                 1.7463                 1.7880
 IR Inten    --      7.1498                 0.0206                 1.4887

                    100                    101                    102
                      A                      A                      A
 Frequencies --   1412.5610              1434.9911              1455.7550
 Red. masses --      1.5778                 2.3315                 2.6353
 Frc consts  --      1.8549                 2.8287                 3.2905
 IR Inten    --     18.9943                17.7980                 0.9098

                    103                    104                    105
                      A                      A                      A
 Frequencies --   1478.1362              1478.1777              1515.6926
 Red. masses --      2.2321                 2.2333                 2.1639
 Frc consts  --      2.8733                 2.8751                 2.9289
 IR Inten    --      6.7124                 1.1213                65.1566

                    106                    107                    108
                      A                      A                      A
 Frequencies --   1516.7449              1531.7798              1554.4210
 Red. masses --      2.2033                 2.3759                 2.7524
 Frc consts  --      2.9865                 3.2845                 3.9183
 IR Inten    --      0.2011                31.1052                 0.0645

                    109                    110                    111
                      A                      A                      A
 Frequencies --   1580.6927              1602.2261              1610.9931
 Red. masses --      5.7994                 6.8062                 5.3816
 Frc consts  --      8.5374                10.2945                 8.2290
 IR Inten    --     76.9145                 0.0607                11.1706

                    112                    113                    114
                      A                      A                      A
 Frequencies --   1611.0214              1627.0527              1627.1747
 Red. masses --      5.3846                 5.5137                 5.5970
 Frc consts  --      8.2338                 8.5999                 8.7312
 IR Inten    --      1.0178                 0.5970               281.2564

                    115                    116                    117
                      A                      A                      A
 Frequencies --   1643.2550              1649.7399              1686.7377
 Red. masses --      5.4651                 5.6218                 7.5544
 Frc consts  --      8.6947                 9.0148                12.6633
 IR Inten    --      0.0003                81.8744               282.9881

                    118                    119                    120
                      A                      A                      A
 Frequencies --   1687.6676              2996.8702              2997.0185
 Red. masses --      7.6075                 1.0854                 1.0855
 Frc consts  --     12.7663                 5.7436                 5.7444
 IR Inten    --      3.7483                95.7907                 8.6661

                    121                    122                    123
                      A                      A                      A
 Frequencies --   3156.3320              3156.4598              3158.5284
 Red. masses --      1.0884                 1.0883                 1.0853
 Frc consts  --      6.3886                 6.3886                 6.3793
 IR Inten    --     30.7837                 0.6022                 9.9022

                    124                    125                    126
                      A                      A                      A
 Frequencies --   3158.5442              3166.3730              3166.3749
 Red. masses --      1.0853                 1.0880                 1.0880
 Frc consts  --      6.3794                 6.4272                 6.4272
 IR Inten    --      0.0688                 4.4243                 3.6256

                    127                    128                    129
                      A                      A                      A
 Frequencies --   3171.7845              3172.6300              3177.0655
 Red. masses --      1.0892                 1.0890                 1.0917
 Frc consts  --      6.4562                 6.4582                 6.4924
 IR Inten    --      1.7746                 9.6159                15.2413

                    130                    131                    132
                      A                      A                      A
 Frequencies --   3177.0709              3182.1488              3182.5225
 Red. masses --      1.0917                 1.0925                 1.0929
 Frc consts  --      6.4924                 6.5179                 6.5220
 IR Inten    --     12.2799                15.3389                 1.7005

                    133                    134                    135
                      A                      A                      A
 Frequencies --   3184.5852              3184.5876              3191.4759
 Red. masses --      1.0942                 1.0942                 1.0975
 Frc consts  --      6.5381                 6.5381                 6.5865
 IR Inten    --     31.6517                 8.5138                35.3281

                    136                    137                    138
                      A                      A                      A
 Frequencies --   3191.4980              3196.0048              3196.3250
 Red. masses --      1.0975                 1.0936                 1.0938
 Frc consts  --      6.5866                 6.5816                 6.5842
 IR Inten    --      0.2190                 3.7632                 0.3089

 - Thermochemistry -
 -------------------
 Temperature   298.150 Kelvin.  Pressure   1.00000 Atm.
 Atom     1 has atomic number  6 and mass  12.00000

 Molecular mass:   360.16265 amu.
 Principal axes and moments of inertia in atomic units:
                           1         2         3
     Eigenvalues --  1386.57283********************
           X            0.08452   0.99642   0.00000
           Y            0.99642  -0.08452   0.00000
           Z           -0.00000  -0.00000   1.00000
 This molecule is an asymmetric top.
 Rotational symmetry number  2.
 Warning -- assumption of classical behavior for rotation
           may cause significant error
 Rotational temperatures (Kelvin)      0.06247     0.00171     0.00168
 Rotational constants (GHZ):           1.30158     0.03572     0.03507
 Zero-point vibrational energy    1009817.7 (Joules/Mol)
                                  241.35223 (Kcal/Mol)
 Warning -- explicit consideration of  34 degrees of freedom as
           vibrations may cause significant error
 Vibrational temperatures:     19.01    31.44    36.97    56.97    61.39
          (Kelvin)             78.02   107.21   114.29   148.40   167.26
                              172.36   224.26   287.57   304.30   323.13
                              379.22   393.14   466.49   496.01   552.88
                              586.41   591.30   603.44   606.15   612.44
                              616.06   700.62   722.62   755.82   775.04
                              793.07   802.06   830.65   864.13   908.28
                              908.46   928.04   944.02   962.46  1014.07
                             1014.35  1059.80  1064.26  1090.89  1118.23
                             1118.48  1202.63  1207.15  1211.22  1214.13
                             1216.52  1223.41  1234.48  1260.67  1277.00
                             1283.08  1331.80  1331.88  1395.19  1400.89
                             1408.69  1408.75  1433.23  1433.41  1435.62
                             1436.87  1448.31  1448.43  1460.96  1461.07
                             1467.71  1490.17  1504.91  1505.11  1511.23
                             1591.26  1591.26  1650.53  1650.80  1708.76
                             1708.88  1721.91  1722.93  1735.73  1735.96
                             1756.79  1767.68  1827.20  1832.90  1871.09
                             1880.37  1891.18  1894.18  1915.93  1929.41
                             1929.62  1944.02  1944.03  2030.09  2032.36
                             2064.63  2094.51  2126.71  2126.77  2180.74
                             2182.26  2203.89  2236.47  2274.26  2305.25
                             2317.86  2317.90  2340.97  2341.14  2364.28
                             2373.61  2426.84  2428.18  4311.83  4312.04
                             4541.26  4541.44  4544.42  4544.44  4555.70
                             4555.71  4563.49  4564.71  4571.09  4571.10
                             4578.40  4578.94  4581.91  4581.91  4591.82
                             4591.85  4598.34  4598.80

 Zero-point correction=                           0.384619 (Hartree/Particle)
 Thermal correction to Energy=                    0.407077
 Thermal correction to Enthalpy=                  0.408021
 Thermal correction to Gibbs Free Energy=         0.329670
 Sum of electronic and zero-point Energies=          -1112.242719
 Sum of electronic and thermal Energies=             -1112.220261
 Sum of electronic and thermal Enthalpies=           -1112.219317
 Sum of electronic and thermal Free Energies=        -1112.297668

                     E (Thermal)             CV                S
                      KCal/Mol        Cal/Mol-Kelvin    Cal/Mol-Kelvin
 Total                  255.445             89.217            164.905
 Electronic               0.000              0.000              0.000
 Translational            0.889              2.981             43.538
 Rotational               0.889              2.981             35.154
 Vibrational            253.667             83.255             86.213
 Vibration     1          0.593              1.987              7.458
 Vibration     2          0.593              1.985              6.458
 Vibration     3          0.593              1.985              6.137
 Vibration     4          0.594              1.981              5.279
 Vibration     5          0.595              1.980              5.131
 Vibration     6          0.596              1.976              4.657
 Vibration     7          0.599              1.966              4.030
 Vibration     8          0.600              1.963              3.905
 Vibration     9          0.605              1.947              3.394
 Vibration    10          0.608              1.936              3.162
 Vibration    11          0.609              1.933              3.104
 Vibration    12          0.620              1.896              2.599
 Vibration    13          0.638              1.840              2.134
 Vibration    14          0.643              1.823              2.031
 Vibration    15          0.649              1.804              1.922
 Vibration    16          0.670              1.740              1.638
 Vibration    17          0.676              1.723              1.576
 Vibration    18          0.709              1.627              1.289
 Vibration    19          0.723              1.586              1.190
 Vibration    20          0.753              1.504              1.022
 Vibration    21          0.772              1.454              0.935
 Vibration    22          0.775              1.446              0.923
 Vibration    23          0.782              1.428              0.894
 Vibration    24          0.784              1.424              0.888
 Vibration    25          0.787              1.414              0.873
 Vibration    26          0.790              1.409              0.865
 Vibration    27          0.843              1.279              0.692
 Vibration    28          0.858              1.245              0.653
 Vibration    29          0.880              1.194              0.598
 Vibration    30          0.894              1.165              0.568
 Vibration    31          0.907              1.137              0.542
 Vibration    32          0.913              1.123              0.529
 Vibration    33          0.934              1.080              0.490
 Vibration    34          0.959              1.031              0.449

 Normal termination of Gaussian 16 at Fri Oct  9 18:12:11 2020.
