 Gaussian 16, Revision C.01,
 Gaussian 16:  ES64L-G16RevC.01  3-Jul-2019

 --------------------------------------------------------------------
 #P B3LYP/6-311++G(d,p) EmpiricalDispersion=GD3 freq(noraman) SCF=YQC
 --------------------------------------------------------------------

 ------------------------------------------------
 Restart from Adamantane_BoronicAcid_Boroxine.log
 ------------------------------------------------
 Symbolic Z-matrix:
 Charge =  0 Multiplicity = 1

                         Standard orientation:
 ---------------------------------------------------------------------
 Center     Atomic      Atomic             Coordinates (Angstroms)
 Number     Number       Type             X           Y           Z
 ---------------------------------------------------------------------
      1          6           0        0.000000   -0.000003   -1.785822
      2          6           0        0.000000    0.000000    1.778218
      3          1           0       -0.796200    0.377532    2.429374
      4          1           0        0.796201   -0.377532    2.429374
      5          6           0       -1.160023    0.536004   -0.905766
      6          6           0        1.160023   -0.536003   -0.905766
      7          6           0       -0.535960   -1.160273    0.898196
      8          6           0        0.535960    1.160273    0.898196
      9          6           0       -0.628526    1.669555   -0.002295
     10          6           0        0.628527   -1.669555   -0.002295
     11          6           0       -1.669733   -0.628538   -0.004868
     12          6           0        1.669734    0.628539   -0.004867
     13          1           0       -0.281113    2.501581   -0.626693
     14          1           0        0.281113   -2.501581   -0.626693
     15          1           0       -2.501691   -0.281332    0.619655
     16          1           0        2.501692    0.281332    0.619656
     17          1           0       -1.438534    2.060706    0.620846
     18          1           0        1.438534   -2.060706    0.620845
     19          1           0       -2.060715   -1.438453   -0.628207
     20          1           0        2.060715    1.438454   -0.628206
     21          1           0       -0.377421   -0.795825   -2.437222
     22          1           0        0.377421    0.795825   -2.437221
     23          5           0       -2.353667    1.000724   -1.807592
     24          8           0       -2.986134    2.219335   -1.621932
     25          5           0       -4.055099    2.596336   -2.400496
     26          8           0       -2.834149    0.164281   -2.807038
     27          5           0       -3.901011    0.527048   -3.589865
     28          8           0       -4.510973    1.747082   -3.383999
     29          1           0       -4.584783    3.641749   -2.220607
     30          1           0       -4.297003   -0.198956   -4.439325
     31          5           0        2.353668   -1.000724   -1.807591
     32          8           0        2.986134   -2.219335   -1.621932
     33          5           0        4.055099   -2.596336   -2.400496
     34          8           0        2.834149   -0.164281   -2.807038
     35          5           0        3.901011   -0.527048   -3.589865
     36          8           0        4.510973   -1.747083   -3.383999
     37          1           0        4.584783   -3.641749   -2.220607
     38          1           0        4.297003    0.198955   -4.439326
     39          5           0       -1.000441   -2.351030    1.803780
     40          8           0       -0.164130   -2.831051    2.802909
     41          5           0       -0.530664   -3.892391    3.591508
     42          8           0       -2.225240   -2.974672    1.627647
     43          5           0       -2.605007   -4.039935    2.410148
     44          8           0       -1.754185   -4.497386    3.391666
     45          1           0        0.195857   -4.288468    4.440443
     46          1           0       -3.657551   -4.559212    2.241489
     47          5           0        1.000441    2.351031    1.803781
     48          8           0        0.164130    2.831051    2.802910
     49          5           0        0.530664    3.892392    3.591508
     50          8           0        2.225240    2.974672    1.627648
     51          5           0        2.605007    4.039935    2.410149
     52          8           0        1.754184    4.497387    3.391667
     53          1           0       -0.195858    4.288468    4.440443
     54          1           0        3.657552    4.559212    2.241491
 ---------------------------------------------------------------------

 SCF Done:  E(RB3LYP) =  -1595.73504406     a.u. after    6 cycles
 SCF Done:  E(RB3LYP) =  -1595.73505710     A.U. after    9 cycles

 The electronic state is 1-A.
 Alpha  occ. eigenvalues --  -19.15934 -19.15934 -19.15930 -19.15930 -19.15876
 Alpha  occ. eigenvalues --  -19.15875 -19.15870 -19.15870 -19.15779 -19.15779
 Alpha  occ. eigenvalues --  -19.15769 -19.15769 -10.17501 -10.17489 -10.17450
 Alpha  occ. eigenvalues --  -10.17449 -10.17444 -10.17444 -10.17031 -10.17031
 Alpha  occ. eigenvalues --  -10.17030 -10.17028  -6.81797  -6.81797  -6.81793
 Alpha  occ. eigenvalues --   -6.81793  -6.81734  -6.81734  -6.81728  -6.81728
 Alpha  occ. eigenvalues --   -6.81294  -6.81294  -6.81292  -6.81292  -1.09217
 Alpha  occ. eigenvalues --   -1.09213  -1.09210  -1.09210  -1.03299  -1.03293
 Alpha  occ. eigenvalues --   -1.03293  -1.03292  -1.03191  -1.03189  -1.03184
 Alpha  occ. eigenvalues --   -1.03182  -0.87745  -0.78119  -0.78117  -0.78113
 Alpha  occ. eigenvalues --   -0.68144  -0.68113  -0.62565  -0.62557  -0.62499
 Alpha  occ. eigenvalues --   -0.61128  -0.60788  -0.60754  -0.60753  -0.60630
 Alpha  occ. eigenvalues --   -0.57153  -0.57150  -0.57095  -0.55294  -0.54971
 Alpha  occ. eigenvalues --   -0.54961  -0.54838  -0.53163  -0.50423  -0.50421
 Alpha  occ. eigenvalues --   -0.50355  -0.50323  -0.46922  -0.46915  -0.46886
 Alpha  occ. eigenvalues --   -0.46594  -0.46098  -0.46031  -0.46027  -0.43706
 Alpha  occ. eigenvalues --   -0.42518  -0.42516  -0.42433  -0.41204  -0.40968
 Alpha  occ. eigenvalues --   -0.40960  -0.40958  -0.40957  -0.40811  -0.40810
 Alpha  occ. eigenvalues --   -0.40744  -0.39420  -0.39288  -0.39282  -0.38822
 Alpha  occ. eigenvalues --   -0.38819  -0.38811  -0.38633  -0.38530  -0.38400
 Alpha  occ. eigenvalues --   -0.38395  -0.38328  -0.35410  -0.35247  -0.35214
 Alpha  occ. eigenvalues --   -0.35207  -0.34512  -0.34428  -0.34137  -0.34134
 Alpha  occ. eigenvalues --   -0.33808  -0.33741  -0.33735  -0.33398  -0.33386
 Alpha  occ. eigenvalues --   -0.27935  -0.27819  -0.27809
 Alpha virt. eigenvalues --   -0.03159  -0.03140  -0.03129  -0.03126  -0.02897
 Alpha virt. eigenvalues --   -0.02618  -0.01921  -0.01909  -0.01901  -0.00506
 Alpha virt. eigenvalues --   -0.00338  -0.00320   0.00587   0.00740   0.00925

 Mulliken charges:
               1
     1  C   -0.697734
     2  C   -0.689518
     3  H    0.178671
     4  H    0.178670
     5  C   -0.404101
     6  C   -0.404103
     7  C   -0.415172
     8  C   -0.415173
     9  C   -0.761279
    10  C   -0.761280
    11  C   -0.757985
    12  C   -0.757979
    13  H    0.139995
    14  H    0.139995
    15  H    0.140767
    16  H    0.140767
    17  H    0.177705
    18  H    0.177705
    19  H    0.175957
    20  H    0.175956
    21  H    0.177263
    22  H    0.177261
    23  B    1.163706
    24  O   -0.191355
    25  B    0.318394
    26  O   -0.321211
    27  B    0.415740
    28  O   -0.324287
    29  H   -0.006539
    30  H   -0.029374
    31  B    1.163704
    32  O   -0.191354
    33  B    0.318394
    34  O   -0.321211
    35  B    0.415739
    36  O   -0.324287
    37  H   -0.006539
    38  H   -0.029374
    39  B    1.158855
    40  O   -0.321641
    41  B    0.415020
    42  O   -0.191397
    43  B    0.316876
    44  O   -0.325175
    45  H   -0.029574
    46  H   -0.006227
    47  B    1.158854
    48  O   -0.321642
    49  B    0.415020
    50  O   -0.191397
    51  B    0.316876
    52  O   -0.325175
    53  H   -0.029574
    54  H   -0.006227
 Sum of Mulliken charges =  -0.00000

 Dipole moment (field-independent basis, Debye):
    X=             -0.0000    Y=              0.0000    Z=             -0.0129  Tot=              0.0129
 Quadrupole moment (field-independent basis, Debye-Ang):
   XX=           -206.2357   YY=           -205.9229   ZZ=           -203.0105
   XY=              0.0274   XZ=              0.0000   YZ=             -0.0000

  Exact polarizability:     278.845      -0.045     278.286      -0.000      -0.000     269.115
 Approx polarizability:     374.091      -0.043     373.771      -0.000      -0.000     363.961

                      1                      2                      3
                      A                      A                      A
 Frequencies --      8.6954                 9.1372                10.5977
 Red. masses --      5.7033                 5.7047                 6.0593
 Frc consts  --      0.0003                 0.0003                 0.0004
 IR Inten    --      0.0006                 0.0004                 0.0000

                      4                      5                      6
                      A                      A                      A
 Frequencies --     13.5227                32.1266                33.1112
 Red. masses --      5.9444                 7.4899                 7.2875
 Frc consts  --      0.0006                 0.0046                 0.0047
 IR Inten    --      0.0224                 0.0432                 0.0009

                      7                      8                      9
                      A                      A                      A
 Frequencies --     40.4985                40.5390                48.4316
 Red. masses --      7.4314                 7.4112                 7.3451
 Frc consts  --      0.0072                 0.0072                 0.0102
 IR Inten    --      0.0860                 0.0865                 0.0710

                     10                     11                     12
                      A                      A                      A
 Frequencies --     90.8893                91.1042                97.1617
 Red. masses --      7.3416                 7.3332                 7.4300
 Frc consts  --      0.0357                 0.0359                 0.0413
 IR Inten    --      0.0379                 0.0396                 0.0000

                     13                     14                     15
                      A                      A                      A
 Frequencies --    131.7597               151.1751               165.2090
 Red. masses --     13.3890                 6.4258                 5.9585
 Frc consts  --      0.1369                 0.0865                 0.0958
 IR Inten    --      0.0512                 0.0001                 0.0406

                     16                     17                     18
                      A                      A                      A
 Frequencies --    165.5445               199.9217               213.5382
 Red. masses --      5.9348                10.2736                 2.9127
 Frc consts  --      0.0958                 0.2419                 0.0783
 IR Inten    --      0.0363                 0.0000                 0.0033

                     19                     20                     21
                      A                      A                      A
 Frequencies --    213.6228               213.7238               213.9716
 Red. masses --      2.9114                 2.9057                 2.9089
 Frc consts  --      0.0783                 0.0782                 0.0785
 IR Inten    --      0.0036                 0.0016                 0.0363

                     22                     23                     24
                      A                      A                      A
 Frequencies --    227.9730               236.6483               236.8938
 Red. masses --      7.9693                 4.9104                 4.8855
 Frc consts  --      0.2440                 0.1620                 0.1615
 IR Inten    --      0.1922                 0.5849                 0.5959

                     25                     26                     27
                      A                      A                      A
 Frequencies --    265.7618               286.2780               286.6151
 Red. masses --      2.9261                 2.9655                 2.9702
 Frc consts  --      0.1218                 0.1432                 0.1438
 IR Inten    --      0.0000                 0.5594                 0.5773

                     28                     29                     30
                      A                      A                      A
 Frequencies --    291.7659               324.2372               331.7611
 Red. masses --      5.5380                 2.2691                 2.3755
 Frc consts  --      0.2778                 0.1405                 0.1540
 IR Inten    --      1.1228                 0.0001                 1.1016

                     31                     32                     33
                      A                      A                      A
 Frequencies --    331.8551               332.0054               412.4055
 Red. masses --      2.3765                 2.2565                 3.9123
 Frc consts  --      0.1542                 0.1465                 0.3920
 IR Inten    --      1.1020                 1.0282                 0.0000

                     34                     35                     36
                      A                      A                      A
 Frequencies --    428.6292               429.2145               431.2629
 Red. masses --      2.8329                 2.8208                 4.5578
 Frc consts  --      0.3067                 0.3062                 0.4994
 IR Inten    --      1.1125                 1.1300                 0.3578

                     37                     38                     39
                      A                      A                      A
 Frequencies --    458.2748               470.4048               481.7955
 Red. masses --      3.9738                 1.9543                 2.1708
 Frc consts  --      0.4917                 0.2548                 0.2969
 IR Inten    --      0.0001                 8.1717                 8.1861

                     40                     41                     42
                      A                      A                      A
 Frequencies --    482.0610               547.1778               547.2036
 Red. masses --      2.1697                 9.7621                 9.7607
 Frc consts  --      0.2971                 1.7221                 1.7220
 IR Inten    --      8.3596                12.3058                12.3086

                     43                     44                     45
                      A                      A                      A
 Frequencies --    547.4533               547.8722               572.9350
 Red. masses --      9.7779                 9.6187                 5.7252
 Frc consts  --      1.7266                 1.7011                 1.1073
 IR Inten    --      8.0087                 0.0009                37.2820

                     46                     47                     48
                      A                      A                      A
 Frequencies --    573.4225               573.5000               580.3892
 Red. masses --      5.3882                 5.3667                 9.2657
 Frc consts  --      1.0439                 1.0400                 1.8389
 IR Inten    --     39.8954                40.1164                 0.0043

                     49                     50                     51
                      A                      A                      A
 Frequencies --    686.2042               716.7256               717.1967
 Red. masses --      6.9144                 6.1931                 6.2048
 Frc consts  --      1.9183                 1.8744                 1.8804
 IR Inten    --     26.4576                19.4349                18.8870

                     52                     53                     54
                      A                      A                      A
 Frequencies --    718.0585               765.8270               766.4069
 Red. masses --      7.3436                 5.4592                 5.4672
 Frc consts  --      2.2309                 1.8864                 1.8921
 IR Inten    --      0.0017                 1.1724                 1.0172

                     55                     56                     57
                      A                      A                      A
 Frequencies --    767.1174               791.9421               810.1058
 Red. masses --      5.2846                 5.0140                15.5547
 Frc consts  --      1.8323                 1.8528                 6.0144
 IR Inten    --      0.5480                 0.0000                 1.7211

                     58                     59                     60
                      A                      A                      A
 Frequencies --    810.1217               810.1292               810.4771
 Red. masses --     15.6052                15.5625                15.5745
 Frc consts  --      6.0342                 6.0178                 6.0276
 IR Inten    --      1.6668                 1.6512                 0.0004

                     61                     62                     63
                      A                      A                      A
 Frequencies --    878.3741               878.7371               879.4511
 Red. masses --      3.3883                 3.3926                 3.5338
 Frc consts  --      1.5402                 1.5435                 1.6103
 IR Inten    --      1.5693                 1.5224                 0.0333

                     64                     65                     66
                      A                      A                      A
 Frequencies --    894.0634               897.1347               897.4739
 Red. masses --      1.6652                 1.6854                 1.6838
 Frc consts  --      0.7842                 0.7992                 0.7991
 IR Inten    --      0.0002                 0.3838                 0.4117

                     67                     68                     69
                      A                      A                      A
 Frequencies --    922.3089               922.3303               922.4953
 Red. masses --      1.6440                 1.6351                 1.6178
 Frc consts  --      0.8239                 0.8195                 0.8112
 IR Inten    --     12.0529                 7.9344                 0.0564

                     70                     71                     72
                      A                      A                      A
 Frequencies --    922.5211               923.1511               923.1771
 Red. masses --      1.6249                 1.8183                 1.8374
 Frc consts  --      0.8147                 0.9130                 0.9226
 IR Inten    --      4.4854                86.7077                 0.6383

                     73                     74                     75
                      A                      A                      A
 Frequencies --    923.2405               923.7176               979.6530
 Red. masses --      1.8074                 1.8315                 2.8270
 Frc consts  --      0.9077                 0.9208                 1.5985
 IR Inten    --     82.9366               144.4280                12.4685

                     76                     77                     78
                      A                      A                      A
 Frequencies --    984.5259               984.6565               985.8928
 Red. masses --      1.9099                 1.8885                 1.7913
 Frc consts  --      1.0907                 1.0788                 1.0259
 IR Inten    --      1.1264                 1.2309                 0.0477

                     79                     80                     81
                      A                      A                      A
 Frequencies --    986.0070               987.4271               987.5993
 Red. masses --      1.9958                 2.7628                 2.8018
 Frc consts  --      1.1432                 1.5871                 1.6101
 IR Inten    --     13.0651                 8.4648                 8.2375

                     82                     83                     84
                      A                      A                      A
 Frequencies --    992.9134               999.3214              1009.3718
 Red. masses --      3.5182                 3.0850                 6.0522
 Frc consts  --      2.0436                 1.8152                 3.6330
 IR Inten    --      0.0028                12.2277                 0.0034

                     85                     86                     87
                      A                      A                      A
 Frequencies --   1039.5784              1039.6741              1041.5345
 Red. masses --      1.9964                 1.9857                 2.0346
 Frc consts  --      1.2712                 1.2646                 1.3004
 IR Inten    --      1.8812                 1.8181                 0.0015

                     88                     89                     90
                      A                      A                      A
 Frequencies --   1052.3506              1052.6474              1053.3711
 Red. masses --      2.0906                 2.1030                 1.8479
 Frc consts  --      1.3641                 1.3730                 1.2081
 IR Inten    --      2.1639                 2.0812                12.9616

                     91                     92                     93
                      A                      A                      A
 Frequencies --   1065.0894              1140.5811              1140.6994
 Red. masses --      2.1464                 3.0759                 2.9927
 Frc consts  --      1.4346                 2.3576                 2.2944
 IR Inten    --      0.0088                 2.9621                 2.6310

                     94                     95                     96
                      A                      A                      A
 Frequencies --   1140.8873              1145.7017              1146.0448
 Red. masses --      3.5464                 6.9143                 4.6447
 Frc consts  --      2.7197                 5.3474                 3.5943
 IR Inten    --      0.4899                 0.0019                 0.4718

                     97                     98                     99
                      A                      A                      A
 Frequencies --   1146.0933              1147.6927              1173.9752
 Red. masses --      4.4692                 3.6244                 2.0638
 Frc consts  --      3.4588                 2.8128                 1.6758
 IR Inten    --      0.3765                 6.0795                 0.2398

                    100                    101                    102
                      A                      A                      A
 Frequencies --   1175.9821              1176.2045              1178.1797
 Red. masses --      2.5603                 2.5528                 2.5885
 Frc consts  --      2.0861                 2.0808                 2.1170
 IR Inten    --     22.0294                21.1580                 0.0007

                    103                    104                    105
                      A                      A                      A
 Frequencies --   1180.6052              1189.4606              1198.7025
 Red. masses --      1.1455                 2.7206                 3.4837
 Frc consts  --      0.9407                 2.2678                 2.9493
 IR Inten    --      2.6953                 0.0081                46.0557

                    106                    107                    108
                      A                      A                      A
 Frequencies --   1198.9332              1199.2105              1287.2434
 Red. masses --      3.5033                 3.3982                 3.5927
 Frc consts  --      2.9670                 2.8793                 3.5074
 IR Inten    --     46.8255                29.2213               263.2020

                    109                    110                    111
                      A                      A                      A
 Frequencies --   1289.4225              1289.6174              1299.7602
 Red. masses --      3.6708                 3.6610                 1.2531
 Frc consts  --      3.5958                 3.5873                 1.2472
 IR Inten    --    188.8172               188.0673                 3.2582

                    112                    113                    114
                      A                      A                      A
 Frequencies --   1299.8804              1301.0657              1327.7190
 Red. masses --      1.2523                 1.2178                 1.3918
 Frc consts  --      1.2467                 1.2145                 1.4456
 IR Inten    --      2.8273                 0.0035                 0.0066

                    115                    116                    117
                      A                      A                      A
 Frequencies --   1329.7796              1329.8963              1340.5484
 Red. masses --      1.3931                 1.3918                 1.3272
 Frc consts  --      1.4514                 1.4503                 1.4052
 IR Inten    --      0.4102                 0.3158                 0.0028

                    118                    119                    120
                      A                      A                      A
 Frequencies --   1346.0005              1355.0330              1361.0045
 Red. masses --      1.3394                 5.7588                 6.9706
 Frc consts  --      1.4297                 6.2300                 7.6075
 IR Inten    --      9.9001                 0.3949                 0.0018

                    121                    122                    123
                      A                      A                      A
 Frequencies --   1361.1346              1361.2687              1365.4329
 Red. masses --      8.3073                 8.3234                 7.3863
 Frc consts  --      9.0680                 9.0874                 8.1136
 IR Inten    --    820.8307               828.7303               438.6034

                    124                    125                    126
                      A                      A                      A
 Frequencies --   1378.4082              1378.4185              1378.5724
 Red. masses --      4.5966                 5.2881                 5.2686
 Frc consts  --      5.1456                 5.9198                 5.8993
 IR Inten    --   1622.5796              1669.5323              1681.8896

                    127                    128                    129
                      A                      A                      A
 Frequencies --   1400.9397              1400.9587              1401.0937
 Red. masses --      1.8835                 1.9603                 1.8735
 Frc consts  --      2.1779                 2.2669                 2.1669
 IR Inten    --    473.8292               424.3126               460.1302

                    130                    131                    132
                      A                      A                      A
 Frequencies --   1432.2868              1484.2878              1486.0013
 Red. masses --      9.7942                 1.0833                 1.0816
 Frc consts  --     11.8381                 1.4061                 1.4073
 IR Inten    --      0.0402                 0.1260                 0.0000

                    133                    134                    135
                      A                      A                      A
 Frequencies --   1497.2509              1497.3151              1500.9029
 Red. masses --      1.0925                 1.0925                 1.0894
 Frc consts  --      1.4430                 1.4431                 1.4459
 IR Inten    --     21.9203                21.8415                18.1321

                    136                    137                    138
                      A                      A                      A
 Frequencies --   1523.1657              2676.2444              2676.4038
 Red. masses --      1.0916                 1.0958                 1.0959
 Frc consts  --      1.4921                 4.6241                 4.6251
 IR Inten    --      0.0003                 2.4469               324.1287

                    139                    140                    141
                      A                      A                      A
 Frequencies --   2676.5018              2676.6227              2685.5892
 Red. masses --      1.0959                 1.0960                 1.1021
 Frc consts  --      4.6253                 4.6261                 4.6833
 IR Inten    --    318.2532               181.2698               169.3648

                    142                    143                    144
                      A                      A                      A
 Frequencies --   2685.5906              2685.6345              2687.1361
 Red. masses --      1.1021                 1.1021                 1.1027
 Frc consts  --      4.6833                 4.6836                 4.6914
 IR Inten    --    182.0448               168.7032                 0.0004

                    145                    146                    147
                      A                      A                      A
 Frequencies --   3004.7390              3006.7031              3006.7710
 Red. masses --      1.0627                 1.0618                 1.0642
 Frc consts  --      5.6528                 5.6553                 5.6688
 IR Inten    --      4.5527                 0.4521                64.6901

                    148                    149                    150
                      A                      A                      A
 Frequencies --   3007.2752              3011.9684              3015.6480
 Red. masses --      1.0641                 1.0587                 1.0629
 Frc consts  --      5.6700                 5.6587                 5.6949
 IR Inten    --     64.3506                64.7282                 1.9160

                    151                    152                    153
                      A                      A                      A
 Frequencies --   3049.5115              3050.7267              3055.3602
 Red. masses --      1.1042                 1.1040                 1.0975
 Frc consts  --      6.0502                 6.0537                 6.0366
 IR Inten    --      8.8680                 6.9862                 0.0242

                    154                    155                    156
                      A                      A                      A
 Frequencies --   3058.1342              3058.4406              3059.2378
 Red. masses --      1.0995                 1.0997                 1.0996
 Frc consts  --      6.0583                 6.0610                 6.0632
 IR Inten    --     44.0798                45.8401                43.8088

 - Thermochemistry -
 -------------------
 Temperature   298.150 Kelvin.  Pressure   1.00000 Atm.
 Atom     1 has atomic number  6 and mass  12.00000

 Molecular mass:   464.20714 amu.
 Principal axes and moments of inertia in atomic units:
                           1         2         3
     Eigenvalues --  ******************************
           X            1.00000  -0.00106  -0.00000
           Y            0.00106   1.00000  -0.00001
           Z            0.00000   0.00001   1.00000
 This molecule is an asymmetric top.
 Rotational symmetry number  1.
 Warning -- assumption of classical behavior for rotation
           may cause significant error
 Rotational temperatures (Kelvin)      0.00458     0.00457     0.00451
 Rotational constants (GHZ):           0.09541     0.09515     0.09395
 Zero-point vibrational energy    1011190.1 (Joules/Mol)
                                  241.68023 (Kcal/Mol)
 Warning -- explicit consideration of  48 degrees of freedom as
           vibrations may cause significant error
 Vibrational temperatures:     12.51    13.15    15.25    19.46    46.22
          (Kelvin)             47.64    58.27    58.33    69.68   130.77
                              131.08   139.79   189.57   217.51   237.70
                              238.18   287.64   307.23   307.36   307.50
                              307.86   328.00   340.48   340.84   382.37
                              411.89   412.38   419.79   466.51   477.33
                              477.47   477.68   593.36   616.70   617.54
                              620.49   659.36   676.81   693.20   693.58
                              787.27   787.30   787.66   788.27   824.33
                              825.03   825.14   835.05   987.29  1031.21
                             1031.89  1033.13  1101.85  1102.69  1103.71
                             1139.43  1165.56  1165.58  1165.60  1166.10
                             1263.78  1264.31  1265.33  1286.36  1290.78
                             1291.26  1327.00  1327.03  1327.27  1327.30
                             1328.21  1328.25  1328.34  1329.02  1409.50
                             1416.51  1416.70  1418.48  1418.64  1420.69
                             1420.94  1428.58  1437.80  1452.26  1495.72
                             1495.86  1498.54  1514.10  1514.52  1515.57
                             1532.43  1641.04  1641.21  1641.48  1648.41
                             1648.90  1648.97  1651.27  1689.09  1691.98
                             1692.30  1695.14  1698.63  1711.37  1724.67
                             1725.00  1725.40  1852.06  1855.19  1855.47
                             1870.07  1870.24  1871.94  1910.29  1913.26
                             1913.42  1928.75  1936.59  1949.59  1958.18
                             1958.37  1958.56  1964.55  1983.22  1983.24
                             1983.46  2015.64  2015.67  2015.86  2060.74
                             2135.56  2138.02  2154.21  2154.30  2159.46
                             2191.50  3850.52  3850.75  3850.89  3851.06
                             3863.96  3863.97  3864.03  3866.19  4323.15
                             4325.98  4326.07  4326.80  4333.55  4338.84
                             4387.57  4389.32  4395.98  4399.97  4400.41
                             4401.56

 Zero-point correction=                           0.385142 (Hartree/Particle)
 Thermal correction to Energy=                    0.414849
 Thermal correction to Enthalpy=                  0.415793
 Thermal correction to Gibbs Free Energy=         0.317737
 Sum of electronic and zero-point Energies=          -1595.349915
 Sum of electronic and thermal Energies=             -1595.320208
 Sum of electronic and thermal Enthalpies=           -1595.319264
 Sum of electronic and thermal Free Energies=        -1595.417320

                     E (Thermal)             CV                S
                      KCal/Mol        Cal/Mol-Kelvin    Cal/Mol-Kelvin
 Total                  260.322            113.489            206.375
 Electronic               0.000              0.000              0.000
 Translational            0.889              2.981             44.294
 Rotational               0.889              2.981             37.175
 Vibrational            258.544            107.527            124.906
 Vibration     1          0.593              1.987              8.289
 Vibration     2          0.593              1.987              8.190
 Vibration     3          0.593              1.987              7.896
 Vibration     4          0.593              1.986              7.411
 Vibration     5          0.594              1.983              5.694
 Vibration     6          0.594              1.983              5.634
 Vibration     7          0.594              1.981              5.235
 Vibration     8          0.594              1.981              5.233
 Vibration     9          0.595              1.978              4.880
 Vibration    10          0.602              1.956              3.641
 Vibration    11          0.602              1.956              3.636
 Vibration    12          0.603              1.951              3.510
 Vibration    13          0.612              1.922              2.920
 Vibration    14          0.619              1.901              2.657
 Vibration    15          0.624              1.885              2.489
 Vibration    16          0.624              1.885              2.485
 Vibration    17          0.638              1.840              2.134
 Vibration    18          0.644              1.820              2.013
 Vibration    19          0.644              1.820              2.012
 Vibration    20          0.644              1.820              2.012
 Vibration    21          0.644              1.820              2.010
 Vibration    22          0.651              1.798              1.895
 Vibration    23          0.656              1.785              1.828
 Vibration    24          0.656              1.784              1.826
 Vibration    25          0.672              1.736              1.624
 Vibration    26          0.684              1.699              1.496
 Vibration    27          0.684              1.699              1.494
 Vibration    28          0.687              1.689              1.464
 Vibration    29          0.709              1.627              1.289
 Vibration    30          0.714              1.612              1.251
 Vibration    31          0.714              1.612              1.251
 Vibration    32          0.714              1.612              1.250
 Vibration    33          0.776              1.443              0.918
 Vibration    34          0.790              1.408              0.863
 Vibration    35          0.791              1.407              0.861
 Vibration    36          0.792              1.402              0.855
 Vibration    37          0.816              1.343              0.771
 Vibration    38          0.827              1.316              0.736
 Vibration    39          0.838              1.290              0.705
 Vibration    40          0.838              1.290              0.705
 Vibration    41          0.902              1.146              0.550
 Vibration    42          0.902              1.146              0.550
 Vibration    43          0.903              1.145              0.549
 Vibration    44          0.903              1.144              0.549
 Vibration    45          0.929              1.090              0.499
 Vibration    46          0.930              1.089              0.498
 Vibration    47          0.930              1.089              0.498
 Vibration    48          0.937              1.074              0.485

 Normal termination of Gaussian 16 at Sun Aug  2 11:42:45 2020.
