 Gaussian 16, Revision C.01,
 Gaussian 16:  ES64L-G16RevC.01  3-Jul-2019

 --------------------------------------------------------------------
 #P B3LYP/6-311++G(d,p) EmpiricalDispersion=GD3 freq(noraman) SCF=YQC
 --------------------------------------------------------------------

 ------------------------------------------------
 Restart from F_BoronicAcid_Boroxine_freq_opt.log
 ------------------------------------------------
 Symbolic Z-matrix:
 Charge =  0 Multiplicity = 1

                         Standard orientation:
 ---------------------------------------------------------------------
 Center     Atomic      Atomic             Coordinates (Angstroms)
 Number     Number       Type             X           Y           Z
 ---------------------------------------------------------------------
      1          9           0        1.323845    2.340304   -0.381913
      2          6           0        0.694485    1.172785   -0.172845
      3          6           0       -0.694485    1.172786   -0.172845
      4          9           0       -1.323842    2.340306   -0.381914
      5          6           0       -1.432154    0.000029   -0.000036
      6          6           0       -0.694485   -1.172727    0.172774
      7          9           0       -1.323845   -2.340247    0.381839
      8          6           0        0.694485   -1.172727    0.172774
      9          9           0        1.323847   -2.340246    0.381839
     10          6           0        1.432154    0.000029   -0.000035
     11          5           0       -3.000341    0.000024   -0.000044
     12          8           0       -3.692019   -1.066414   -0.523139
     13          5           0       -5.070783   -1.075221   -0.527388
     14          8           0       -3.692036    1.066402    0.523149
     15          5           0       -5.070800    1.075145    0.527482
     16          8           0       -5.750710   -0.000065    0.000090
     17          1           0       -5.659167   -1.996316   -0.981959
     18          1           0       -5.659199    1.996152    0.982211
     19          5           0        3.000341    0.000023   -0.000044
     20          8           0        3.692034    1.066384    0.523186
     21          5           0        5.070799    1.075127    0.527519
     22          8           0        3.692017   -1.066397   -0.523175
     23          5           0        5.070782   -1.075204   -0.527425
     24          8           0        5.750708   -0.000065    0.000090
     25          1           0        5.659198    1.996120    0.982277
     26          1           0        5.659166   -1.996283   -0.982026
 ---------------------------------------------------------------------

 SCF Done:  E(RB3LYP) =  -1231.82209269     a.u. after    6 cycles
 SCF Done:  E(RB3LYP) =  -1231.82210399     A.U. after   10 cycles

 The electronic state is 1-A.
 Alpha  occ. eigenvalues --  -24.71999 -24.71998 -24.71998 -24.71998 -19.17154
 Alpha  occ. eigenvalues --  -19.17154 -19.17154 -19.17153 -19.16920 -19.16919
 Alpha  occ. eigenvalues --  -10.30241 -10.30240 -10.30186 -10.30185 -10.21852
 Alpha  occ. eigenvalues --  -10.21850  -6.84441  -6.84440  -6.82844  -6.82844
 Alpha  occ. eigenvalues --   -6.82843  -6.82843  -1.27015  -1.26955  -1.25505
 Alpha  occ. eigenvalues --   -1.25466  -1.10588  -1.10587  -1.04709  -1.04709
 Alpha  occ. eigenvalues --   -1.04464  -1.04463  -0.91310  -0.80812  -0.78919
 Alpha  occ. eigenvalues --   -0.69818  -0.66758  -0.62457  -0.62398  -0.62323
 Alpha  occ. eigenvalues --   -0.62008  -0.59437  -0.58790  -0.58360  -0.56751
 Alpha  occ. eigenvalues --   -0.56282  -0.55340  -0.52703  -0.52253  -0.51893
 Alpha  occ. eigenvalues --   -0.51632  -0.50854  -0.48656  -0.47975  -0.47908
 Alpha  occ. eigenvalues --   -0.47716  -0.47394  -0.45552  -0.44462  -0.43010
 Alpha  occ. eigenvalues --   -0.42162  -0.42014  -0.41987  -0.41899  -0.40695
 Alpha  occ. eigenvalues --   -0.40326  -0.40117  -0.39943  -0.39819  -0.39638
 Alpha  occ. eigenvalues --   -0.37670  -0.36085  -0.35503  -0.35369  -0.35354
 Alpha  occ. eigenvalues --   -0.30138  -0.27117
 Alpha virt. eigenvalues --   -0.09892  -0.04043  -0.04030  -0.03496  -0.03170
 Alpha virt. eigenvalues --   -0.01924  -0.00952  -0.00419   0.00615   0.00636
 Alpha virt. eigenvalues --    0.00813   0.01755   0.02228   0.02251   0.02343

 Mulliken charges:
               1
     1  F   -0.139173
     2  C   -0.403820
     3  C   -0.403824
     4  F   -0.139172
     5  C    0.711574
     6  C   -0.403875
     7  F   -0.139166
     8  C   -0.403881
     9  F   -0.139167
    10  C    0.711553
    11  B    0.795686
    12  O   -0.346787
    13  B    0.296033
    14  O   -0.346765
    15  B    0.296030
    16  O   -0.302536
    17  H   -0.008590
    18  H   -0.008594
    19  B    0.795682
    20  O   -0.346759
    21  B    0.296027
    22  O   -0.346782
    23  B    0.296030
    24  O   -0.302537
    25  H   -0.008595
    26  H   -0.008590
 Sum of Mulliken charges =   0.00000

 Dipole moment (field-independent basis, Debye):
    X=              0.0000    Y=              0.0002    Z=             -0.0004  Tot=              0.0004
 Quadrupole moment (field-independent basis, Debye-Ang):
   XX=           -121.0590   YY=           -133.0064   ZZ=           -115.6547
   XY=             -0.0001   XZ=             -0.0000   YZ=             -2.1101

  Exact polarizability:     229.920       0.000     156.387       0.000       7.470      95.106
 Approx polarizability:     275.911      -0.000     253.679       0.000       1.922     145.360

                      1                      2                      3
                      A                      A                      A
 Frequencies --     24.5073                26.3542                31.3836
 Red. masses --      5.4758                 9.3224                 6.6036
 Frc consts  --      0.0019                 0.0038                 0.0038
 IR Inten    --      0.4276                 0.0356                 0.0000

                      4                      5                      6
                      A                      A                      A
 Frequencies --     52.5257                60.7204                89.6936
 Red. masses --      8.7666                12.5329                10.9851
 Frc consts  --      0.0143                 0.0272                 0.0521
 IR Inten    --      0.0978                 0.0000                 0.0000

                      7                      8                      9
                      A                      A                      A
 Frequencies --    122.0172               128.8864               158.7763
 Red. masses --     18.4985                13.7494                14.1387
 Frc consts  --      0.1623                 0.1346                 0.2100
 IR Inten    --      0.1133                 0.5283                 0.0000

                     10                     11                     12
                      A                      A                      A
 Frequencies --    186.3125               193.6750               214.0176
 Red. masses --     10.3004                12.3330                 2.9314
 Frc consts  --      0.2107                 0.2726                 0.0791
 IR Inten    --      0.0000                 1.8092                 0.1921

                     13                     14                     15
                      A                      A                      A
 Frequencies --    214.9863               236.8790               258.8216
 Red. masses --      2.9599                 9.8930                14.1204
 Frc consts  --      0.0806                 0.3271                 0.5573
 IR Inten    --      0.0000                 0.0000                 0.9599

                     16                     17                     18
                      A                      A                      A
 Frequencies --    291.8296               311.0978               319.8756
 Red. masses --     10.2625                18.6591                 2.6506
 Frc consts  --      0.5149                 1.0640                 0.1598
 IR Inten    --      0.9299                 0.0000                 0.0000

                     19                     20                     21
                      A                      A                      A
 Frequencies --    321.8081               327.9207               390.3846
 Red. masses --      8.3427                 2.6481                 6.6399
 Frc consts  --      0.5090                 0.1678                 0.5962
 IR Inten    --      0.4229                 0.7849                 0.0000

                     22                     23                     24
                      A                      A                      A
 Frequencies --    407.2061               424.4519               446.8060
 Red. masses --     15.4539                12.6612                15.6797
 Frc consts  --      1.5098                 1.3440                 1.8443
 IR Inten    --      8.0378                 0.0000                 0.0000

                     25                     26                     27
                      A                      A                      A
 Frequencies --    496.0989               544.2065               545.7684
 Red. masses --     15.7864                10.0492                 9.9791
 Frc consts  --      2.2891                 1.7535                 1.7513
 IR Inten    --      0.0000                28.5769                 0.0000

                     28                     29                     30
                      A                      A                      A
 Frequencies --    569.3811               582.6497               592.1519
 Red. masses --      9.2651                10.0987                10.1683
 Frc consts  --      1.7697                 2.0199                 2.1007
 IR Inten    --     11.0536                 0.0000               101.6361

                     31                     32                     33
                      A                      A                      A
 Frequencies --    654.3536               698.6576               732.1767
 Red. masses --      9.4948                12.1960                 9.9373
 Frc consts  --      2.3953                 3.5075                 3.1387
 IR Inten    --      0.0000                 4.0914                51.0926

                     34                     35                     36
                      A                      A                      A
 Frequencies --    760.0629               783.0239               785.1045
 Red. masses --     11.6497                10.2564                11.1261
 Frc consts  --      3.9652                 3.7051                 4.0406
 IR Inten    --      0.0000                14.0925                 0.0000

                     37                     38                     39
                      A                      A                      A
 Frequencies --    812.5855               815.2852               895.9396
 Red. masses --     15.6852                15.2281                 6.7838
 Frc consts  --      6.1021                 5.9637                 3.2083
 IR Inten    --      0.0000                 1.9232                 0.0000

                     40                     41                     42
                      A                      A                      A
 Frequencies --    920.1725               920.2348               920.6757
 Red. masses --      1.6145                 1.6147                 1.8377
 Frc consts  --      0.8054                 0.8057                 0.9178
 IR Inten    --      0.0929                 0.0000                 0.0001

                     43                     44                     45
                      A                      A                      A
 Frequencies --    921.0322               967.1944               986.0985
 Red. masses --      1.8409                11.3431                 1.8561
 Frc consts  --      0.9201                 6.2518                 1.0634
 IR Inten    --    188.7381               153.5507                14.4892

                     46                     47                     48
                      A                      A                      A
 Frequencies --    986.6974              1056.3940              1056.9015
 Red. masses --      1.9168                 1.5395                 1.5766
 Frc consts  --      1.0995                 1.0122                 1.0376
 IR Inten    --      0.0000                 0.0000                35.4039

                     49                     50                     51
                      A                      A                      A
 Frequencies --   1082.9576              1126.5980              1133.6359
 Red. masses --      3.5616                12.5211                11.4304
 Frc consts  --      2.4611                 9.3633                 8.6548
 IR Inten    --      0.1970                 0.0000                 6.0543

                     52                     53                     54
                      A                      A                      A
 Frequencies --   1134.0374              1136.4148              1193.0063
 Red. masses --     11.5470                 2.6514                 2.9219
 Frc consts  --      8.7493                 2.0174                 2.4502
 IR Inten    --      0.0001                 0.0000                77.8766

                     55                     56                     57
                      A                      A                      A
 Frequencies --   1194.1587              1212.6803              1295.9378
 Red. masses --      2.9903                 3.7989                 5.0626
 Frc consts  --      2.5124                 3.2915                 5.0094
 IR Inten    --      0.0000               162.2521                 0.0000

                     58                     59                     60
                      A                      A                      A
 Frequencies --   1304.0359              1336.9383              1367.7177
 Red. masses --     11.9954                 8.0261                 8.0796
 Frc consts  --     12.0183                 8.4523                 8.9050
 IR Inten    --     27.0602                75.8275              3894.7920

                     61                     62                     63
                      A                      A                      A
 Frequencies --   1375.9541              1380.2664              1385.6567
 Red. masses --     10.0109                11.2714                 9.7693
 Frc consts  --     11.1669                12.6518                11.0516
 IR Inten    --    767.8230                 0.0000                 0.0000

                     64                     65                     66
                      A                      A                      A
 Frequencies --   1400.3271              1469.0904              1479.2953
 Red. masses --      9.4354                11.8441                11.9396
 Frc consts  --     10.9011                15.0608                15.3939
 IR Inten    --      0.0000               133.6994              1040.9652

                     67                     68                     69
                      A                      A                      A
 Frequencies --   1587.5353              1676.3419              2693.0810
 Red. masses --     11.9902                12.0184                 1.0965
 Frc consts  --     17.8042                19.8985                 4.6856
 IR Inten    --      0.0000                 0.0000                 0.0361

                     70                     71                     72
                      A                      A                      A
 Frequencies --   2693.2147              2701.7946              2702.6041
 Red. masses --      1.0966                 1.1028                 1.1031
 Frc consts  --      4.6863                 4.7429                 4.7471
 IR Inten    --    396.7015               234.2558                 0.0006

 - Thermochemistry -
 -------------------
 Temperature   298.150 Kelvin.  Pressure   1.00000 Atm.
 Atom     1 has atomic number  9 and mass  18.99840

 Molecular mass:   314.05023 amu.
 Principal axes and moments of inertia in atomic units:
                           1         2         3
     Eigenvalues --  2385.90644********************
           X            1.00000   0.00000  -0.00000
           Y           -0.00000   0.99988   0.01575
           Z            0.00000  -0.01575   0.99988
 This molecule is an asymmetric top.
 Rotational symmetry number  1.
 Warning -- assumption of classical behavior for rotation
           may cause significant error
 Rotational temperatures (Kelvin)      0.03630     0.00666     0.00575
 Rotational constants (GHZ):           0.75642     0.13879     0.11983
 Zero-point vibrational energy     366697.7 (Joules/Mol)
                                   87.64285 (Kcal/Mol)
 Warning -- explicit consideration of  30 degrees of freedom as
           vibrations may cause significant error
 Vibrational temperatures:     35.26    37.92    45.15    75.57    87.36
          (Kelvin)            129.05   175.56   185.44   228.44   268.06
                              278.66   307.92   309.32   340.82   372.39
                              419.88   447.60   460.23   463.01   471.80
                              561.68   585.88   610.69   642.85   713.78
                              782.99   785.24   819.21   838.30   851.97
                              941.47  1005.21  1053.44  1093.56  1126.60
                             1129.59  1169.13  1173.01  1289.06  1323.92
                             1324.01  1324.65  1325.16  1391.58  1418.78
                             1419.64  1519.92  1520.65  1558.13  1620.92
                             1631.05  1631.63  1635.05  1716.47  1718.13
                             1744.78  1864.57  1876.22  1923.56  1967.84
                             1979.69  1985.90  1993.65  2014.76  2113.69
                             2128.38  2284.11  2411.88  3874.74  3874.94
                             3887.28  3888.44

 Zero-point correction=                           0.139668 (Hartree/Particle)
 Thermal correction to Energy=                    0.158508
 Thermal correction to Enthalpy=                  0.159452
 Thermal correction to Gibbs Free Energy=         0.089910
 Sum of electronic and zero-point Energies=          -1231.682436
 Sum of electronic and thermal Energies=             -1231.663596
 Sum of electronic and thermal Enthalpies=           -1231.662652
 Sum of electronic and thermal Free Energies=        -1231.732194

                     E (Thermal)             CV                S
                      KCal/Mol        Cal/Mol-Kelvin    Cal/Mol-Kelvin
 Total                   99.465             68.437            146.365
 Electronic               0.000              0.000              0.000
 Translational            0.889              2.981             43.129
 Rotational               0.889              2.981             34.501
 Vibrational             97.688             62.475             68.734
 Vibration     1          0.593              1.985              6.231
 Vibration     2          0.593              1.985              6.087
 Vibration     3          0.594              1.983              5.740
 Vibration     4          0.596              1.977              4.720
 Vibration     5          0.597              1.973              4.434
 Vibration     6          0.602              1.956              3.667
 Vibration     7          0.610              1.931              3.068
 Vibration     8          0.611              1.924              2.963
 Vibration     9          0.621              1.893              2.564
 Vibration    10          0.632              1.859              2.264
 Vibration    11          0.635              1.849              2.192
 Vibration    12          0.644              1.820              2.009
 Vibration    13          0.645              1.818              2.001
 Vibration    14          0.656              1.784              1.826
 Vibration    15          0.668              1.748              1.670
 Vibration    16          0.687              1.689              1.463
 Vibration    17          0.700              1.653              1.356
 Vibration    18          0.706              1.636              1.311
 Vibration    19          0.707              1.632              1.301
 Vibration    20          0.711              1.620              1.270
 Vibration    21          0.758              1.491              0.999
 Vibration    22          0.772              1.455              0.937
 Vibration    23          0.786              1.417              0.877
 Vibration    24          0.806              1.368              0.805
 Vibration    25          0.852              1.259              0.668
 Vibration    26          0.899              1.152              0.556
 Vibration    27          0.901              1.149              0.553
 Vibration    28          0.925              1.097              0.505
 Vibration    29          0.939              1.069              0.480
 Vibration    30          0.950              1.048              0.463

 Optimization completed.
    -- Stationary point found.
 Normal termination of Gaussian 16 at Tue Sep 22 11:45:23 2020.
