 Gaussian 16, Revision C.01,
 Gaussian 16:  ES64L-G16RevC.01  3-Jul-2019

 ----------------------------------------------------------------------
 #P B3LYP/6-311++G(d,p) EmpiricalDispersion=GD3 freq(noraman) SCF=YQC N
 oSymm
 ----------------------------------------------------------------------

 ----------------------------------------
 Restart from 2_Phenyl_Aldehyde_Imine.log
 ----------------------------------------
 Symbolic Z-matrix:
 Charge =  0 Multiplicity = 1

                          Input orientation:
 ---------------------------------------------------------------------
 Center     Atomic      Atomic             Coordinates (Angstroms)
 Number     Number       Type             X           Y           Z
 ---------------------------------------------------------------------
      1          6           0        0.005587   -1.405798   -0.017957
      2          6           0       -0.005587    1.405798    0.017957
      3          6           0       -1.209006   -0.703382   -0.008655
      4          6           0        1.209006    0.703382    0.008655
      5          6           0       -1.210246    0.682553    0.009885
      6          6           0        1.210246   -0.682553   -0.009885
      7          1           0        2.153687   -1.219378   -0.016837
      8          1           0       -2.153687    1.219378    0.016837
      9          1           0        2.135702    1.263564    0.016036
     10          1           0       -2.135702   -1.263564   -0.016036
     11          6           0       -0.837176   -7.793603   -0.206684
     12          6           0       -1.741224   -7.144550    0.636304
     13          6           0        0.017306   -7.039522   -1.010025
     14          6           0       -0.013912   -5.648265   -0.960616
     15          6           0       -0.909836   -4.991312   -0.101428
     16          6           0       -1.791595   -5.755683    0.676816
     17          6           0        0.047147   -2.871706   -0.037416
     18          7           0       -1.006803   -3.592210   -0.020831
     19          1           0       -2.417135   -7.723832    1.255413
     20          1           0        0.704928   -7.535618   -1.686136
     21          1           0        0.629173   -5.066822   -1.611449
     22          1           0       -2.499057   -5.239774    1.315191
     23          1           0        1.050795   -3.319046   -0.051576
     24          1           0       -0.810619   -8.876321   -0.248549
     25          6           0        0.837176    7.793603    0.206684
     26          6           0        1.741224    7.144550   -0.636304
     27          6           0       -0.017306    7.039522    1.010025
     28          6           0        0.013912    5.648265    0.960616
     29          6           0        0.909836    4.991312    0.101428
     30          6           0        1.791595    5.755683   -0.676816
     31          6           0       -0.047147    2.871706    0.037416
     32          7           0        1.006803    3.592210    0.020831
     33          1           0        2.417135    7.723832   -1.255413
     34          1           0       -0.704928    7.535618    1.686136
     35          1           0       -0.629173    5.066822    1.611449
     36          1           0        2.499057    5.239774   -1.315191
     37          1           0       -1.050795    3.319046    0.051576
     38          1           0        0.810619    8.876321    0.248549
 ---------------------------------------------------------------------

 SCF Done:  E(RB3LYP) =  -881.504808633     a.u. after    6 cycles
 SCF Done:  E(RB3LYP) =  -881.504828413     A.U. after   10 cycles

 Alpha  occ. eigenvalues --  -14.32324 -14.32324 -10.23079 -10.23079 -10.21503
 Alpha  occ. eigenvalues --  -10.21503 -10.20136 -10.20135 -10.19459 -10.19458
 Alpha  occ. eigenvalues --  -10.18993 -10.18992 -10.18272 -10.18272 -10.18187
 Alpha  occ. eigenvalues --  -10.18187 -10.18130 -10.18130 -10.17919 -10.17919
 Alpha  occ. eigenvalues --  -10.17802 -10.17802  -0.95109  -0.95015  -0.88058
 Alpha  occ. eigenvalues --   -0.85832  -0.85380  -0.79689  -0.76765  -0.75880
 Alpha  occ. eigenvalues --   -0.75604  -0.75442  -0.73959  -0.68468  -0.64173
 Alpha  occ. eigenvalues --   -0.63386  -0.61981  -0.61449  -0.60454  -0.58028
 Alpha  occ. eigenvalues --   -0.57006  -0.54272  -0.53411  -0.51251  -0.50019
 Alpha  occ. eigenvalues --   -0.48673  -0.48373  -0.46592  -0.46468  -0.45504
 Alpha  occ. eigenvalues --   -0.44670  -0.44448  -0.43991  -0.43694  -0.43050
 Alpha  occ. eigenvalues --   -0.43020  -0.40814  -0.40283  -0.38258  -0.37809
 Alpha  occ. eigenvalues --   -0.37264  -0.37082  -0.36258  -0.35915  -0.35774
 Alpha  occ. eigenvalues --   -0.35171  -0.33365  -0.29896  -0.28738  -0.27547
 Alpha  occ. eigenvalues --   -0.26618  -0.26349  -0.26265  -0.24014  -0.22769
 Alpha virt. eigenvalues --   -0.09370  -0.04317  -0.02937  -0.02047  -0.02045
 Alpha virt. eigenvalues --   -0.00865  -0.00811  -0.00521   0.00106   0.00131
 Alpha virt. eigenvalues --    0.00793   0.01101   0.01373   0.01797   0.02567

 Mulliken charges:
               1
     1  C    0.859288
     2  C    0.859288
     3  C   -0.468002
     4  C   -0.468002
     5  C   -0.645342
     6  C   -0.645342
     7  H    0.176911
     8  H    0.176911
     9  H    0.183786
    10  H    0.183786
    11  C   -0.413294
    12  C   -0.106760
    13  C   -0.074031
    14  C   -0.090322
    15  C   -0.289176
    16  C    0.090713
    17  C   -0.372399
    18  N    0.233478
    19  H    0.175746
    20  H    0.176359
    21  H    0.149914
    22  H    0.169332
    23  H    0.094509
    24  H    0.149290
    25  C   -0.413294
    26  C   -0.106760
    27  C   -0.074031
    28  C   -0.090322
    29  C   -0.289176
    30  C    0.090713
    31  C   -0.372399
    32  N    0.233478
    33  H    0.175746
    34  H    0.176359
    35  H    0.149914
    36  H    0.169332
    37  H    0.094509
    38  H    0.149290
 Sum of Mulliken charges =   0.00000

 Dipole moment (field-independent basis, Debye):
    X=             -0.0000    Y=             -0.0000    Z=             -0.0000  Tot=              0.0000
 Quadrupole moment (field-independent basis, Debye-Ang):
   XX=           -125.2068   YY=           -113.1157   ZZ=           -131.0717
   XY=             -7.1656   XZ=             -7.7566   YZ=              0.8399

  Exact polarizability:     216.531      53.484     579.402     -33.536       9.084     160.606
 Approx polarizability:     388.053      63.795     704.556     -68.458       8.340     266.617

                      1                      2                      3
                      A                      A                      A
 Frequencies --     19.5169                28.6272                35.2482
 Red. masses --      5.8519                 3.8307                 5.5506
 Frc consts  --      0.0013                 0.0018                 0.0041
 IR Inten    --      0.0023                 0.9110                 0.6831

                      4                      5                      6
                      A                      A                      A
 Frequencies --     48.0588                62.2134                78.2021
 Red. masses --      3.6887                 5.7245                 4.9761
 Frc consts  --      0.0050                 0.0131                 0.0179
 IR Inten    --      0.0000                 0.0000                 0.0000

                      7                      8                      9
                      A                      A                      A
 Frequencies --    107.8506               140.1356               162.6813
 Red. masses --      5.7423                 6.1427                 4.6603
 Frc consts  --      0.0394                 0.0711                 0.0727
 IR Inten    --      4.5537                 0.0000                 0.0000

                     10                     11                     12
                      A                      A                      A
 Frequencies --    171.1597               228.5573               246.0954
 Red. masses --      5.2073                 2.7799                 4.3521
 Frc consts  --      0.0899                 0.0856                 0.1553
 IR Inten    --      2.0167                23.9606                 0.0000

                     13                     14                     15
                      A                      A                      A
 Frequencies --    303.1797               326.7203               334.2060
 Red. masses --      5.2750                 3.6988                 6.4497
 Frc consts  --      0.2857                 0.2326                 0.4244
 IR Inten    --      0.4800                 0.0000                 7.4622

                     16                     17                     18
                      A                      A                      A
 Frequencies --    401.1754               418.0650               421.2498
 Red. masses --      3.7406                 2.9319                 2.9556
 Frc consts  --      0.3547                 0.3019                 0.3090
 IR Inten    --      0.0000                 0.2144                 6.0239

                     19                     20                     21
                      A                      A                      A
 Frequencies --    423.0673               460.8810               502.7249
 Red. masses --      3.0146                 4.2415                 4.8924
 Frc consts  --      0.3179                 0.5308                 0.7285
 IR Inten    --      0.0000                10.1939                 0.0000

                     22                     23                     24
                      A                      A                      A
 Frequencies --    524.4952               527.9571               549.4802
 Red. masses --      7.5481                 3.3143                 3.3355
 Frc consts  --      1.2234                 0.5443                 0.5934
 IR Inten    --      0.0000                14.2757                 0.0000

                     25                     26                     27
                      A                      A                      A
 Frequencies --    562.2974               604.5987               630.8901
 Red. masses --      2.7197                 7.5481                 6.4741
 Frc consts  --      0.5066                 1.6256                 1.5182
 IR Inten    --     36.4745                 8.9445                 0.0000

                     28                     29                     30
                      A                      A                      A
 Frequencies --    631.6595               649.6078               682.0474
 Red. masses --      6.4724                 6.9785                 6.0001
 Frc consts  --      1.5215                 1.7351                 1.6445
 IR Inten    --      0.0959                 0.0000                 0.0000

                     31                     32                     33
                      A                      A                      A
 Frequencies --    704.5508               704.7918               742.3588
 Red. masses --      1.8413                 1.8237                 3.1947
 Frc consts  --      0.5385                 0.5337                 1.0373
 IR Inten    --      0.0000                75.4997                 0.0000

                     34                     35                     36
                      A                      A                      A
 Frequencies --    769.2227               779.2106               820.3205
 Red. masses --      1.9008                 2.0780                 4.2629
 Frc consts  --      0.6626                 0.7434                 1.6901
 IR Inten    --     95.9613                 0.0000                 2.5984

                     37                     38                     39
                      A                      A                      A
 Frequencies --    842.6019               843.5583               848.0708
 Red. masses --      1.3549                 1.2823                 4.4545
 Frc consts  --      0.5667                 0.5376                 1.8876
 IR Inten    --      0.0000                 3.9761                 0.0000

                     40                     41                     42
                      A                      A                      A
 Frequencies --    855.5626               856.5739               877.2495
 Red. masses --      1.4932                 1.2562                 3.5368
 Frc consts  --      0.6440                 0.5431                 1.6036
 IR Inten    --     34.6884                 0.0000                79.6945

                     43                     44                     45
                      A                      A                      A
 Frequencies --    900.0623               925.7973               927.5199
 Red. masses --      2.8009                 1.6266                 1.8598
 Frc consts  --      1.3369                 0.8214                 0.9427
 IR Inten    --      0.0000                19.8532                 0.0000

                     46                     47                     48
                      A                      A                      A
 Frequencies --    978.6844               979.8976               980.8492
 Red. masses --      1.3636                 1.3645                 1.3511
 Frc consts  --      0.7695                 0.7719                 0.7659
 IR Inten    --      0.0000                 0.4932                 0.0000

                     49                     50                     51
                      A                      A                      A
 Frequencies --    997.0383               997.1017              1000.5982
 Red. masses --      1.2996                 1.2962                 1.3700
 Frc consts  --      0.7612                 0.7593                 0.8081
 IR Inten    --      0.2850                 0.0000                 0.8162

                     52                     53                     54
                      A                      A                      A
 Frequencies --   1003.5474              1007.7486              1014.9118
 Red. masses --      1.9352                 2.2376                 3.6568
 Frc consts  --      1.1483                 1.3388                 2.2193
 IR Inten    --     16.5171                 0.0000                 4.0300

                     55                     56                     57
                      A                      A                      A
 Frequencies --   1016.0933              1032.2823              1045.9844
 Red. masses --      2.6747                 2.6624                 2.1189
 Frc consts  --      1.6270                 1.6716                 1.3659
 IR Inten    --      0.0000                 3.8369                15.5544

                     58                     59                     60
                      A                      A                      A
 Frequencies --   1046.0762              1106.2963              1106.3002
 Red. masses --      2.1141                 1.5373                 1.5369
 Frc consts  --      1.3630                 1.1085                 1.1083
 IR Inten    --      0.0000                 0.0000                13.6564

                     61                     62                     63
                      A                      A                      A
 Frequencies --   1140.6529              1186.5824              1188.0617
 Red. masses --      1.4182                 1.3461                 1.1437
 Frc consts  --      1.0871                 1.1167                 0.9511
 IR Inten    --     12.3905                 0.0000                 5.4614

                     64                     65                     66
                      A                      A                      A
 Frequencies --   1191.3464              1198.3247              1201.0357
 Red. masses --      1.3578                 1.3021                 1.1491
 Frc consts  --      1.1354                 1.1016                 0.9766
 IR Inten    --      0.0000                24.3110                 0.0000

                     67                     68                     69
                      A                      A                      A
 Frequencies --   1215.4511              1219.5759              1264.5962
 Red. masses --      2.1692                 2.0270                 2.4014
 Frc consts  --      1.8881                 1.7764                 2.2627
 IR Inten    --    102.8503                 0.0000                 1.0263

                     70                     71                     72
                      A                      A                      A
 Frequencies --   1272.3254              1314.6836              1315.4821
 Red. masses --      3.0243                 3.5384                 2.8472
 Frc consts  --      2.8845                 3.6033                 2.9030
 IR Inten    --      0.0000                12.4324                 0.0000

                     73                     74                     75
                      A                      A                      A
 Frequencies --   1334.9605              1338.2607              1351.2800
 Red. masses --      1.6108                 7.2647                 1.6197
 Frc consts  --      1.6913                 7.6657                 1.7425
 IR Inten    --      0.0000                56.5825                 6.2926

                     76                     77                     78
                      A                      A                      A
 Frequencies --   1351.3094              1408.6708              1412.4706
 Red. masses --      1.6233                 1.7490                 1.3938
 Frc consts  --      1.7465                 2.0449                 1.6384
 IR Inten    --      0.0000                24.5359                 0.0000

                     79                     80                     81
                      A                      A                      A
 Frequencies --   1450.7944              1478.3476              1478.3812
 Red. masses --      2.2934                 2.2282                 2.2365
 Frc consts  --      2.8441                 2.8691                 2.8799
 IR Inten    --     23.5815                 6.6381                 0.0000

                     82                     83                     84
                      A                      A                      A
 Frequencies --   1515.5454              1516.8991              1542.0262
 Red. masses --      2.1668                 2.2145                 2.5997
 Frc consts  --      2.9323                 3.0022                 3.6421
 IR Inten    --     77.3817                 0.0000                 1.4131

                     85                     86                     87
                      A                      A                      A
 Frequencies --   1591.5347              1611.0627              1611.0633
 Red. masses --      6.7935                 5.3693                 5.3720
 Frc consts  --     10.1386                 8.2109                 8.2151
 IR Inten    --      0.0000                 0.0000                10.0531

                     88                     89                     90
                      A                      A                      A
 Frequencies --   1624.8426              1628.5687              1645.4165
 Red. masses --      5.4329                 5.6723                 5.5180
 Frc consts  --      8.4509                 8.8638                 8.8020
 IR Inten    --      0.0000               149.1185                 0.0000

                     91                     92                     93
                      A                      A                      A
 Frequencies --   1683.1142              1687.8656              3000.3073
 Red. masses --      7.5665                 7.4915                 1.0854
 Frc consts  --     12.6291                12.5746                 5.7567
 IR Inten    --    261.7371                 0.0000                97.0125

                     94                     95                     96
                      A                      A                      A
 Frequencies --   3000.7269              3157.8167              3159.1230
 Red. masses --      1.0857                 1.0894                 1.0854
 Frc consts  --      5.7599                 6.4006                 6.3820
 IR Inten    --      0.0000                22.0287                 8.5248

                     97                     98                     99
                      A                      A                      A
 Frequencies --   3159.1408              3159.6640              3167.0043
 Red. masses --      1.0854                 1.0895                 1.0881
 Frc consts  --      6.3820                 6.4083                 6.4299
 IR Inten    --      0.0000                 0.0000                 7.8628

                    100                    101                    102
                      A                      A                      A
 Frequencies --   3167.0051              3177.5843              3177.5880
 Red. masses --      1.0881                 1.0917                 1.0917
 Frc consts  --      6.4299                 6.4944                 6.4945
 IR Inten    --      0.0000                25.9517                 0.0000

                    103                    104                    105
                      A                      A                      A
 Frequencies --   3185.0587              3185.0593              3191.8880
 Red. masses --      1.0942                 1.0943                 1.0975
 Frc consts  --      6.5403                 6.5404                 6.5882
 IR Inten    --      0.0000                38.3936                34.6483

                    106                    107                    108
                      A                      A                      A
 Frequencies --   3191.9376              3197.0442              3198.0390
 Red. masses --      1.0976                 1.0927                 1.0931
 Frc consts  --      6.5885                 6.5803                 6.5870
 IR Inten    --      0.0000                 3.0551                 0.0000

 - Thermochemistry -
 -------------------
 Temperature   298.150 Kelvin.  Pressure   1.00000 Atm.
 Atom     1 has atomic number  6 and mass  12.00000

 Molecular mass:   284.13135 amu.
 Principal axes and moments of inertia in atomic units:
                           1         2         3
     Eigenvalues --  1012.73348********************
           X            0.13627   0.87492   0.46469
           Y            0.99043  -0.11002  -0.08331
           Z            0.02177  -0.47160   0.88154
 This molecule is an asymmetric top.
 Rotational symmetry number  1.
 Warning -- assumption of classical behavior for rotation
           may cause significant error
 Rotational temperatures (Kelvin)      0.08552     0.00329     0.00320
 Rotational constants (GHZ):           1.78205     0.06865     0.06673
 Zero-point vibrational energy     798142.6 (Joules/Mol)
                                  190.76067 (Kcal/Mol)
 Warning -- explicit consideration of  26 degrees of freedom as
           vibrations may cause significant error
 Vibrational temperatures:     28.08    41.19    50.71    69.15    89.51
          (Kelvin)            112.52   155.17   201.62   234.06   246.26
                              328.84   354.08   436.21   470.08   480.85
                              577.20   601.50   606.08   608.70   663.10
                              723.31   754.63   759.61   790.58   809.02
                              869.88   907.71   908.82   934.64   981.31
                             1013.69  1014.04  1068.09  1106.74  1121.11
                             1180.26  1212.32  1213.69  1220.18  1230.96
                             1232.42  1262.17  1294.99  1332.02  1334.49
                             1408.11  1409.85  1411.22  1434.52  1434.61
                             1439.64  1443.88  1449.93  1460.23  1461.93
                             1485.22  1504.94  1505.07  1591.71  1591.72
                             1641.15  1707.23  1709.36  1714.08  1724.12
                             1728.02  1748.76  1754.70  1819.47  1830.59
                             1891.54  1892.69  1920.71  1925.46  1944.19
                             1944.23  2026.76  2032.23  2087.37  2127.01
                             2127.06  2180.53  2182.48  2218.63  2289.86
                             2317.96  2317.96  2337.79  2343.15  2367.39
                             2421.63  2428.46  4316.77  4317.38  4543.39
                             4545.27  4545.30  4546.05  4556.61  4556.61
                             4571.84  4571.84  4582.59  4582.59  4592.41
                             4592.49  4599.83  4601.26

 Zero-point correction=                           0.303996 (Hartree/Particle)
 Thermal correction to Energy=                    0.321744
 Thermal correction to Enthalpy=                  0.322689
 Thermal correction to Gibbs Free Energy=         0.255284
 Sum of electronic and zero-point Energies=           -881.200832
 Sum of electronic and thermal Energies=              -881.183084
 Sum of electronic and thermal Enthalpies=            -881.182140
 Sum of electronic and thermal Free Energies=         -881.249544

                     E (Thermal)             CV                S
                      KCal/Mol        Cal/Mol-Kelvin    Cal/Mol-Kelvin
 Total                  201.898             70.036            141.864
 Electronic               0.000              0.000              0.000
 Translational            0.889              2.981             42.831
 Rotational               0.889              2.981             34.931
 Vibrational            200.120             64.075             64.103
 Vibration     1          0.593              1.986              6.683
 Vibration     2          0.593              1.984              5.922
 Vibration     3          0.594              1.982              5.510
 Vibration     4          0.595              1.978              4.896
 Vibration     5          0.597              1.972              4.386
 Vibration     6          0.599              1.964              3.935
 Vibration     7          0.606              1.943              3.307
 Vibration     8          0.615              1.913              2.802
 Vibration     9          0.623              1.888              2.518
 Vibration    10          0.626              1.878              2.423
 Vibration    11          0.651              1.797              1.890
 Vibration    12          0.661              1.769              1.758
 Vibration    13          0.695              1.668              1.399
 Vibration    14          0.710              1.622              1.276
 Vibration    15          0.716              1.607              1.240
 Vibration    16          0.767              1.468              0.958
 Vibration    17          0.781              1.431              0.899
 Vibration    18          0.784              1.424              0.888
 Vibration    19          0.785              1.420              0.882
 Vibration    20          0.819              1.337              0.764
 Vibration    21          0.858              1.244              0.651
 Vibration    22          0.879              1.196              0.600
 Vibration    23          0.883              1.188              0.592
 Vibration    24          0.905              1.141              0.545
 Vibration    25          0.918              1.113              0.519
 Vibration    26          0.963              1.022              0.442

 Optimization completed.
    -- Stationary point found.
 Normal termination of Gaussian 16 at Sat Oct 17 01:49:35 2020.
