 Gaussian 16, Revision C.01,
 Gaussian 16:  ES64L-G16RevC.01  3-Jul-2019

 --------------------------------------------------------------------
 #P B3LYP/6-311++G(d,p) EmpiricalDispersion=GD3 freq(noraman) SCF=YQC
 --------------------------------------------------------------------

 ----------------------------------------------
 Restart from TPG_BoronicAcid_BoronateEster.log
 ----------------------------------------------
 Symbolic Z-matrix:
 Charge =  0 Multiplicity = 1

                         Standard orientation:
 ---------------------------------------------------------------------
 Center     Atomic      Atomic             Coordinates (Angstroms)
 Number     Number       Type             X           Y           Z
 ---------------------------------------------------------------------
      1          6           0        1.222869   -0.753535   -0.000035
      2          6           0       -0.039732   -1.392700    0.000035
      3          8           0       -0.152446   -2.731257    0.000105
      4          6           0       -1.263966   -0.682474    0.000025
      5          6           0       -1.186173    0.730564    0.000008
      6          8           0       -2.289015    1.497474   -0.000051
      7          6           0        0.041025    1.435684   -0.000009
      8          6           0        1.225849    0.661795   -0.000057
      9          8           0        2.441463    1.233380   -0.000081
     10          1           0       -3.093619    0.953445    0.000013
     11          1           0        2.372699    2.202208   -0.000174
     12          1           0        0.721015   -3.156015    0.000119
     13          5           0        2.522033   -1.562656   -0.000041
     14          8           0        2.498178   -2.977937    0.000057
     15          8           0        3.840244   -1.124895   -0.000102
     16          6           0        3.816779   -3.386678    0.000065
     17          6           0        4.625242   -2.253873   -0.000035
     18          6           0        4.333247   -4.666377    0.000151
     19          6           0        6.003956   -2.346574   -0.000054
     20          6           0        5.730673   -4.772994    0.000135
     21          6           0        6.546508   -3.638252    0.000033
     22          1           0        3.689607   -5.536736    0.000230
     23          1           0        6.624870   -1.460063   -0.000129
     24          1           0        6.184927   -5.756541    0.000200
     25          1           0        7.623368   -3.757965    0.000021
     26          5           0       -2.614309   -1.402950    0.000036
     27          8           0       -3.827928   -0.674453    0.000113
     28          8           0       -2.894523   -2.763396   -0.000127
     29          6           0       -4.841363   -1.611851    0.000059
     30          6           0       -4.264777   -2.878502   -0.000094
     31          6           0       -6.207810   -1.419021    0.000116
     32          6           0       -5.034627   -4.026016   -0.000198
     33          6           0       -6.999063   -2.575777    0.000014
     34          6           0       -6.424495   -3.849782   -0.000135
     35          1           0       -6.639571   -0.426358    0.000228
     36          1           0       -4.577518   -5.007080   -0.000319
     37          1           0       -8.077950   -2.477203    0.000059
     38          1           0       -7.066759   -4.722397   -0.000205
     39          5           0        0.092229    2.965364   -0.000020
     40          8           0        1.329895    3.652242   -0.000175
     41          8           0       -0.945895    3.888185    0.000209
     42          6           0        1.024702    4.998587   -0.000111
     43          6           0       -0.360556    5.132455    0.000126
     44          6           0        1.874816    6.085638   -0.000235
     45          6           0       -0.969528    6.372855    0.000255
     46          6           0        1.268539    7.349199   -0.000109
     47          6           0       -0.122081    7.488484    0.000128
     48          1           0        2.950380    5.963330   -0.000420
     49          1           0       -2.047717    6.467419    0.000442
     50          1           0        1.893265    8.234314   -0.000204
     51          1           0       -0.556754    8.480964    0.000217
 ---------------------------------------------------------------------

 SCF Done:  E(RB3LYP) =  -1675.99930839     a.u. after    8 cycles
 SCF Done:  E(RB3LYP) =  -1675.99931018     A.U. after    8 cycles

 The electronic state is 1-A.
 Alpha  occ. eigenvalues --  -19.18147 -19.18147 -19.18147 -19.16891 -19.16891
 Alpha  occ. eigenvalues --  -19.16891 -19.15849 -19.15848 -19.15848 -10.26685
 Alpha  occ. eigenvalues --  -10.26685 -10.26684 -10.24661 -10.24661 -10.24661
 Alpha  occ. eigenvalues --  -10.24379 -10.24378 -10.24378 -10.19405 -10.19405
 Alpha  occ. eigenvalues --  -10.19405 -10.19140 -10.19140 -10.19139 -10.18846
 Alpha  occ. eigenvalues --  -10.18845 -10.18845 -10.18786 -10.18786 -10.18786
 Alpha  occ. eigenvalues --  -10.16772 -10.16772 -10.16770  -6.80643  -6.80642
 Alpha  occ. eigenvalues --   -6.80642  -1.12328  -1.12277  -1.12277  -1.08178
 Alpha  occ. eigenvalues --   -1.08016  -1.08016  -1.04695  -1.04578  -1.04577
 Alpha  occ. eigenvalues --   -0.87030  -0.87029  -0.87027  -0.85347  -0.76884
 Alpha  occ. eigenvalues --   -0.76884  -0.76878  -0.76419  -0.76419  -0.75066
 Alpha  occ. eigenvalues --   -0.74375  -0.74374  -0.65662  -0.65662  -0.64305
 Alpha  occ. eigenvalues --   -0.63403  -0.63402  -0.63372  -0.62596  -0.62596
 Alpha  occ. eigenvalues --   -0.60241  -0.60064  -0.58448  -0.58448  -0.53866
 Alpha  occ. eigenvalues --   -0.53796  -0.53796  -0.53096  -0.52898  -0.52897
 Alpha  occ. eigenvalues --   -0.50125  -0.50125  -0.50046  -0.49165  -0.48392
 Alpha  occ. eigenvalues --   -0.48119  -0.48119  -0.47004  -0.47004  -0.46078
 Alpha  occ. eigenvalues --   -0.46078  -0.46043  -0.44643  -0.44435  -0.42837
 Alpha  occ. eigenvalues --   -0.42836  -0.42548  -0.40940  -0.40940  -0.40703
 Alpha  occ. eigenvalues --   -0.40702  -0.40116  -0.38989  -0.38989  -0.38963
 Alpha  occ. eigenvalues --   -0.38796  -0.38796  -0.38630  -0.38293  -0.38292
 Alpha  occ. eigenvalues --   -0.36709  -0.36709  -0.36378  -0.36377  -0.36263
 Alpha  occ. eigenvalues --   -0.36058  -0.35125  -0.34838  -0.34837  -0.30300
 Alpha  occ. eigenvalues --   -0.26521  -0.26520  -0.26488  -0.26238  -0.26238
 Alpha  occ. eigenvalues --   -0.24735  -0.22940  -0.22939
 Alpha virt. eigenvalues --   -0.04516  -0.04516  -0.03153  -0.02068  -0.02067
 Alpha virt. eigenvalues --   -0.01104  -0.01079  -0.01079  -0.00937  -0.00583
 Alpha virt. eigenvalues --   -0.00583  -0.00104   0.00008   0.00650   0.00651

 Mulliken charges:
               1
     1  C   -0.297980
     2  C   -0.219453
     3  O   -0.265124
     4  C   -0.298016
     5  C   -0.219245
     6  O   -0.265236
     7  C   -0.297945
     8  C   -0.219338
     9  O   -0.265143
    10  H    0.461854
    11  H    0.461738
    12  H    0.461714
    13  B    0.769817
    14  O   -0.212630
    15  O   -0.221140
    16  C    0.074122
    17  C    0.310656
    18  C   -0.280129
    19  C   -0.207752
    20  C   -0.311687
    21  C   -0.292195
    22  H    0.168218
    23  H    0.177473
    24  H    0.174219
    25  H    0.171825
    26  B    0.769967
    27  O   -0.212600
    28  O   -0.221337
    29  C    0.073904
    30  C    0.310873
    31  C   -0.280149
    32  C   -0.207739
    33  C   -0.311732
    34  C   -0.292188
    35  H    0.168211
    36  H    0.177478
    37  H    0.174223
    38  H    0.171825
    39  B    0.769798
    40  O   -0.212585
    41  O   -0.221256
    42  C    0.074128
    43  C    0.310645
    44  C   -0.280178
    45  C   -0.207739
    46  C   -0.311720
    47  C   -0.292182
    48  H    0.168215
    49  H    0.177473
    50  H    0.174219
    51  H    0.171825
 Sum of Mulliken charges =   0.00000

 Dipole moment (field-independent basis, Debye):
    X=             -0.0004    Y=              0.0003    Z=             -0.0000  Tot=              0.0005
 Quadrupole moment (field-independent basis, Debye-Ang):
   XX=           -171.9470   YY=           -171.9533   ZZ=           -210.5325
   XY=              0.0021   XZ=             -0.0012   YZ=             -0.0006

  Exact polarizability:     480.191      -0.002     480.175      -0.007       0.001     168.483
 Approx polarizability:     677.140      -0.002     677.129      -0.018       0.001     275.298

                      1                      2                      3
                      A                      A                      A
 Frequencies --     18.9057                22.7978                22.9306
 Red. masses --      6.6396                 5.5210                 5.5184
 Frc consts  --      0.0014                 0.0017                 0.0017
 IR Inten    --      0.6147                 0.0000                 0.0000

                      4                      5                      6
                      A                      A                      A
 Frequencies --     30.5452                48.4091                48.4297
 Red. masses --      5.4151                 6.3660                 6.3666
 Frc consts  --      0.0030                 0.0088                 0.0088
 IR Inten    --      0.3310                 0.4899                 0.4890

                      7                      8                      9
                      A                      A                      A
 Frequencies --     50.6644                50.6821                94.2369
 Red. masses --      7.5423                 7.5491                 8.5171
 Frc consts  --      0.0114                 0.0114                 0.0446
 IR Inten    --      0.0000                 0.0000                 0.0001

                     10                     11                     12
                      A                      A                      A
 Frequencies --     94.4230               114.4571               122.3462
 Red. masses --      8.5370                 8.4294                 6.8414
 Frc consts  --      0.0448                 0.0651                 0.0603
 IR Inten    --      0.0000                 0.8115                 0.0000

                     13                     14                     15
                      A                      A                      A
 Frequencies --    184.4842               196.6988               196.7148
 Red. masses --      8.4793                 7.5974                 7.5972
 Frc consts  --      0.1700                 0.1732                 0.1732
 IR Inten    --      0.0000                 1.5846                 1.5837

                     16                     17                     18
                      A                      A                      A
 Frequencies --    214.4574               239.8307               239.8458
 Red. masses --      8.8695                 6.7217                 6.7248
 Frc consts  --      0.2403                 0.2278                 0.2279
 IR Inten    --      0.3694                 0.0008                 0.0134

                     19                     20                     21
                      A                      A                      A
 Frequencies --    239.8884               265.6158               265.6934
 Red. masses --      6.7521                 7.1808                 7.1804
 Frc consts  --      0.2289                 0.2985                 0.2986
 IR Inten    --      0.1131                 0.0000                 0.0000

                     22                     23                     24
                      A                      A                      A
 Frequencies --    284.9803               284.9911               321.3477
 Red. masses --      8.5169                 8.5185                 6.9304
 Frc consts  --      0.4075                 0.4076                 0.4217
 IR Inten    --      0.0368                 0.0375                 0.9918

                     25                     26                     27
                      A                      A                      A
 Frequencies --    321.9036               369.5845               369.6303
 Red. masses --      7.0249                 6.8362                 6.8426
 Frc consts  --      0.4289                 0.5502                 0.5508
 IR Inten    --      0.0000                 0.0003                 0.0000

                     28                     29                     30
                      A                      A                      A
 Frequencies --    428.2113               428.2832               430.2005
 Red. masses --      6.4472                 6.4504                 3.0543
 Frc consts  --      0.6965                 0.6971                 0.3330
 IR Inten    --     23.4105                23.4074                 8.6541

                     31                     32                     33
                      A                      A                      A
 Frequencies --    433.0665               433.1036               482.0303
 Red. masses --      3.1462                 3.1488                 7.3649
 Frc consts  --      0.3477                 0.3480                 1.0083
 IR Inten    --      0.0010                 0.0001                 0.0000

                     34                     35                     36
                      A                      A                      A
 Frequencies --    492.9856               492.9982               551.5436
 Red. masses --      7.6456                 7.6453                 8.2886
 Frc consts  --      1.0948                 1.0948                 1.4856
 IR Inten    --      1.4505                 1.4506                 3.6614

                     37                     38                     39
                      A                      A                      A
 Frequencies --    551.5525               560.2243               561.8334
 Red. masses --      8.2888                 1.1715                 1.1744
 Frc consts  --      1.4857                 0.2166                 0.2184
 IR Inten    --      3.6668                 2.8665                 0.5727

                     40                     41                     42
                      A                      A                      A
 Frequencies --    569.1205               576.3211               580.9081
 Red. masses --      1.1113                 8.3315                 3.9499
 Frc consts  --      0.2121                 1.6304                 0.7853
 IR Inten    --    203.5579                 0.0000                 0.0003

                     43                     44                     45
                      A                      A                      A
 Frequencies --    580.9089               581.1030               607.7138
 Red. masses --      3.9362                 3.7681                10.2041
 Frc consts  --      0.7826                 0.7497                 2.2204
 IR Inten    --      0.0034                 4.1793                 0.0000

                     46                     47                     48
                      A                      A                      A
 Frequencies --    627.4308               627.4499               628.2824
 Red. masses --      7.3920                 7.3913                 7.3634
 Frc consts  --      1.7145                 1.7145                 1.7125
 IR Inten    --      0.5706                 0.5706                 0.0001

                     49                     50                     51
                      A                      A                      A
 Frequencies --    664.0187               666.9883               667.0795
 Red. masses --      8.1370                 6.8261                 6.7637
 Frc consts  --      2.1139                 1.7892                 1.7733
 IR Inten    --     47.6910                 0.0050                 0.0181

                     52                     53                     54
                      A                      A                      A
 Frequencies --    672.1295               672.1350               735.4767
 Red. masses --      8.7590                 8.7586                 5.7992
 Frc consts  --      2.3314                 2.3313                 1.8482
 IR Inten    --     21.0086                20.9987                 0.0000

                     55                     56                     57
                      A                      A                      A
 Frequencies --    743.9363               743.9512               751.5330
 Red. masses --      3.5346                 3.5335                 1.2543
 Frc consts  --      1.1526                 1.1522                 0.4174
 IR Inten    --      0.0000                 0.0002               268.1194

                     58                     59                     60
                      A                      A                      A
 Frequencies --    752.9772               752.9999               754.0037
 Red. masses --      2.0737                 2.0576                 4.5477
 Frc consts  --      0.6927                 0.6874                 1.5233
 IR Inten    --      0.0045                 0.0074                 2.6231

                     61                     62                     63
                      A                      A                      A
 Frequencies --    754.2741               754.2983               783.8286
 Red. masses --      2.9201                 2.9441                 8.6164
 Frc consts  --      0.9788                 0.9869                 3.1190
 IR Inten    --      0.0233                 0.0009                 0.0000

                     64                     65                     66
                      A                      A                      A
 Frequencies --    813.0040               830.9666               830.9773
 Red. masses --     11.7910                 6.4356                 6.4372
 Frc consts  --      4.5919                 2.6182                 2.6189
 IR Inten    --     44.0254                96.9725                96.8305

                     67                     68                     69
                      A                      A                      A
 Frequencies --    833.0392               853.9988               854.0553
 Red. masses --      7.7061                11.3124                11.3178
 Frc consts  --      3.1507                 4.8609                 4.8639
 IR Inten    --      0.0009                96.7208                96.5569

                     70                     71                     72
                      A                      A                      A
 Frequencies --    857.4983               857.5319               857.5438
 Red. masses --      1.4297                 1.4294                 1.4287
 Frc consts  --      0.6194                 0.6193                 0.6190
 IR Inten    --      0.0305                 0.0262                 0.0100

                     73                     74                     75
                      A                      A                      A
 Frequencies --    882.6582               882.6720               884.2680
 Red. masses --      7.3085                 7.3101                 7.1897
 Frc consts  --      3.3548                 3.3556                 3.3123
 IR Inten    --      0.5637                 0.5583                 0.0000

                     76                     77                     78
                      A                      A                      A
 Frequencies --    931.7161               931.7285               931.8415
 Red. masses --      1.3753                 1.3753                 1.3755
 Frc consts  --      0.7034                 0.7034                 0.7037
 IR Inten    --      0.0310                 0.0406                13.0641

                     79                     80                     81
                      A                      A                      A
 Frequencies --    967.5303               967.5897               967.6011
 Red. masses --      1.2533                 1.2535                 1.2535
 Frc consts  --      0.6913                 0.6914                 0.6915
 IR Inten    --      0.0017                 0.0000                 0.0000

                     82                     83                     84
                      A                      A                      A
 Frequencies --   1023.5315              1023.9225              1023.9522
 Red. masses --      2.0197                 1.9763                 1.9763
 Frc consts  --      1.2466                 1.2208                 1.2209
 IR Inten    --      0.0486                21.4042                21.3919

                     85                     86                     87
                      A                      A                      A
 Frequencies --   1069.3217              1083.3908              1083.4065
 Red. masses --      8.8533                 6.9418                 6.9412
 Frc consts  --      5.9645                 4.8006                 4.8003
 IR Inten    --      0.0000                33.6558                33.6656

                     88                     89                     90
                      A                      A                      A
 Frequencies --   1103.1862              1106.0698              1106.0796
 Red. masses --      3.8631                 5.0244                 5.0230
 Frc consts  --      2.7700                 3.6216                 3.6206
 IR Inten    --      0.0003                 7.9611                 7.9036

                     91                     92                     93
                      A                      A                      A
 Frequencies --   1141.2873              1141.2936              1144.0929
 Red. masses --      1.7446                 1.7449                 1.7995
 Frc consts  --      1.3389                 1.3391                 1.3878
 IR Inten    --     41.3761                41.3453                 0.0003

                     94                     95                     96
                      A                      A                      A
 Frequencies --   1181.9849              1181.9876              1182.2760
 Red. masses --      1.1477                 1.1477                 1.1506
 Frc consts  --      0.9447                 0.9448                 0.9476
 IR Inten    --     13.1154                13.1348                 0.0005

                     97                     98                     99
                      A                      A                      A
 Frequencies --   1221.7594              1221.7608              1223.2864
 Red. masses --      7.7351                 7.7368                 6.1740
 Frc consts  --      6.8028                 6.8043                 5.4435
 IR Inten    --     40.6987                40.3700                 0.0051

                    100                    101                    102
                      A                      A                      A
 Frequencies --   1256.3193              1256.3313              1262.3348
 Red. masses --      4.3717                 4.3719                 4.4065
 Frc consts  --      4.0654                 4.0656                 4.1370
 IR Inten    --    585.3554               586.0141                 0.0057

                    103                    104                    105
                      A                      A                      A
 Frequencies --   1280.7840              1280.9626              1295.7290
 Red. masses --      2.5024                 2.5051                 5.1513
 Frc consts  --      2.4186                 2.4219                 5.0956
 IR Inten    --    748.9976               749.7698                 0.0109

                    106                    107                    108
                      A                      A                      A
 Frequencies --   1300.6195              1301.8245              1301.8330
 Red. masses --      1.5331                 1.5711                 1.5721
 Frc consts  --      1.5280                 1.5688                 1.5698
 IR Inten    --      0.0017               100.2018               101.4001

                    109                    110                    111
                      A                      A                      A
 Frequencies --   1354.3551              1359.2282              1359.3144
 Red. masses --     10.2605                 3.2389                 3.2353
 Frc consts  --     11.0887                 3.5256                 3.5221
 IR Inten    --      0.0356               763.2895               760.0584

                    112                    113                    114
                      A                      A                      A
 Frequencies --   1382.0677              1393.9041              1393.9263
 Red. masses --      5.0349                 3.9766                 3.9724
 Frc consts  --      5.6663                 4.5522                 4.5476
 IR Inten    --      0.0000               209.6428               210.0909

                    115                    116                    117
                      A                      A                      A
 Frequencies --   1442.9745              1459.4923              1459.5386
 Red. masses --      1.4339                 5.5765                 5.5670
 Frc consts  --      1.7591                 6.9987                 6.9872
 IR Inten    --      0.0001               207.7427               208.2010

                    118                    119                    120
                      A                      A                      A
 Frequencies --   1473.1644              1497.4615              1497.4697
 Red. masses --      9.3099                 2.4868                 2.4838
 Frc consts  --     11.9041                 3.2855                 3.2816
 IR Inten    --      0.0011                25.8978                22.8512

                    121                    122                    123
                      A                      A                      A
 Frequencies --   1497.4944              1500.2458              1500.2912
 Red. masses --      2.4613                 2.9895                 2.9909
 Frc consts  --      3.2520                 3.9643                 3.9664
 IR Inten    --      2.5832               264.9441               265.6412

                    124                    125                    126
                      A                      A                      A
 Frequencies --   1502.2671              1620.7653              1620.7761
 Red. masses --      3.1415                 4.4137                 4.4083
 Frc consts  --      4.1772                 6.8312                 6.8229
 IR Inten    --      0.0782               884.4393               884.0497

                    127                    128                    129
                      A                      A                      A
 Frequencies --   1643.9373              1645.9756              1646.0083
 Red. masses --      7.4202                 7.2784                 7.2785
 Frc consts  --     11.8150                11.6181                11.6187
 IR Inten    --      0.0062                47.0831                47.0983

                    130                    131                    132
                      A                      A                      A
 Frequencies --   1656.9089              1656.9145              1656.9275
 Red. masses --      7.3618                 7.3601                 7.4089
 Frc consts  --     11.9079                11.9051                11.9843
 IR Inten    --     14.1814                14.6455                 1.1037

                    133                    134                    135
                      A                      A                      A
 Frequencies --   3172.5868              3172.5950              3172.6021
 Red. masses --      1.0868                 1.0868                 1.0868
 Frc consts  --      6.4449                 6.4449                 6.4449
 IR Inten    --      0.9984                 1.7473                 1.9954

                    136                    137                    138
                      A                      A                      A
 Frequencies --   3186.9998              3187.0041              3187.0222
 Red. masses --      1.0913                 1.0913                 1.0913
 Frc consts  --      6.5306                 6.5306                 6.5307
 IR Inten    --     18.6497                18.8332                 0.3568

                    139                    140                    141
                      A                      A                      A
 Frequencies --   3200.5325              3200.5500              3200.5574
 Red. masses --      1.0945                 1.0945                 1.0945
 Frc consts  --      6.6057                 6.6057                 6.6058
 IR Inten    --      3.3034                 5.0825                 7.1576

                    142                    143                    144
                      A                      A                      A
 Frequencies --   3204.6998              3204.7051              3204.7229
 Red. masses --      1.0961                 1.0961                 1.0961
 Frc consts  --      6.6322                 6.6322                 6.6323
 IR Inten    --      5.2926                 5.2210                 0.2111

                    145                    146                    147
                      A                      A                      A
 Frequencies --   3653.7691              3653.8711              3654.8830
 Red. masses --      1.0669                 1.0669                 1.0671
 Frc consts  --      8.3915                 8.3920                 8.3984
 IR Inten    --   1019.4019              1022.6039                 4.0232

 - Thermochemistry -
 -------------------
 Temperature   298.150 Kelvin.  Pressure   1.00000 Atm.
 Atom     1 has atomic number  6 and mass  12.00000

 Molecular mass:   480.09952 amu.
 Principal axes and moments of inertia in atomic units:
                           1         2         3
     Eigenvalues --  ******************************
           X            1.00000  -0.00226  -0.00000
           Y            0.00226   1.00000  -0.00000
           Z            0.00000   0.00000   1.00000
 This molecule is an asymmetric top.
 Rotational symmetry number  1.
 Warning -- assumption of classical behavior for rotation
           may cause significant error
 Rotational temperatures (Kelvin)      0.00408     0.00408     0.00204
 Rotational constants (GHZ):           0.08498     0.08498     0.04249
 Zero-point vibrational energy     957152.8 (Joules/Mol)
                                  228.76501 (Kcal/Mol)
 Warning -- explicit consideration of  45 degrees of freedom as
           vibrations may cause significant error
 Vibrational temperatures:     27.20    32.80    32.99    43.95    69.65
          (Kelvin)             69.68    72.89    72.92   135.59   135.85
                              164.68   176.03   265.43   283.01   283.03
                              308.56   345.06   345.08   345.15   382.16
                              382.27   410.02   410.04   462.35   463.15
                              531.75   531.82   616.10   616.20   618.96
                              623.09   623.14   693.53   709.30   709.31
                              793.55   793.56   806.04   808.35   818.84
                              829.20   835.80   835.80   836.08   874.36
                              902.73   902.76   903.96   955.37   959.65
                              959.78   967.04   967.05  1058.19  1070.36
                             1070.38  1081.29  1083.37  1083.40  1084.84
                             1085.23  1085.27  1127.75  1169.73  1195.58
                             1195.59  1198.56  1228.71  1228.80  1233.75
                             1233.80  1233.81  1269.95  1269.97  1272.26
                             1340.53  1340.55  1340.71  1392.06  1392.15
                             1392.16  1472.63  1473.20  1473.24  1538.52
                             1558.76  1558.78  1587.24  1591.39  1591.40
                             1642.06  1642.07  1646.09  1700.61  1700.62
                             1701.03  1757.84  1757.84  1760.04  1807.56
                             1807.58  1816.22  1842.76  1843.02  1864.27
                             1871.30  1873.04  1873.05  1948.61  1955.63
                             1955.75  1988.49  2005.52  2005.55  2076.12
                             2099.88  2099.95  2119.55  2154.51  2154.52
                             2154.56  2158.52  2158.58  2161.43  2331.92
                             2331.94  2365.26  2368.19  2368.24  2383.92
                             2383.93  2383.95  4564.64  4564.66  4564.67
                             4585.38  4585.39  4585.41  4604.85  4604.88
                             4604.89  4610.85  4610.86  4610.88  5256.96
                             5257.11  5258.56

 Zero-point correction=                           0.364560 (Hartree/Particle)
 Thermal correction to Energy=                    0.391782
 Thermal correction to Enthalpy=                  0.392727
 Thermal correction to Gibbs Free Energy=         0.303991
 Sum of electronic and zero-point Energies=          -1675.634750
 Sum of electronic and thermal Energies=             -1675.607528
 Sum of electronic and thermal Enthalpies=           -1675.606584
 Sum of electronic and thermal Free Energies=        -1675.695320

                     E (Thermal)             CV                S
                      KCal/Mol        Cal/Mol-Kelvin    Cal/Mol-Kelvin
 Total                  245.847            109.392            186.760
 Electronic               0.000              0.000              0.000
 Translational            0.889              2.981             44.394
 Rotational               0.889              2.981             38.191
 Vibrational            244.070            103.431            104.175
 Vibration     1          0.593              1.986              6.746
 Vibration     2          0.593              1.985              6.374
 Vibration     3          0.593              1.985              6.363
 Vibration     4          0.594              1.984              5.794
 Vibration     5          0.595              1.978              4.881
 Vibration     6          0.595              1.978              4.881
 Vibration     7          0.595              1.977              4.791
 Vibration     8          0.595              1.977              4.791
 Vibration     9          0.603              1.953              3.570
 Vibration    10          0.603              1.953              3.566
 Vibration    11          0.607              1.937              3.192
 Vibration    12          0.610              1.930              3.063
 Vibration    13          0.631              1.861              2.283
 Vibration    14          0.636              1.844              2.164
 Vibration    15          0.636              1.844              2.164
 Vibration    16          0.644              1.819              2.005
 Vibration    17          0.657              1.779              1.804
 Vibration    18          0.657              1.779              1.804
 Vibration    19          0.657              1.779              1.804
 Vibration    20          0.671              1.736              1.625
 Vibration    21          0.672              1.736              1.624
 Vibration    22          0.683              1.702              1.504
 Vibration    23          0.683              1.702              1.504
 Vibration    24          0.707              1.633              1.303
 Vibration    25          0.707              1.632              1.300
 Vibration    26          0.742              1.535              1.082
 Vibration    27          0.742              1.535              1.081
 Vibration    28          0.790              1.409              0.865
 Vibration    29          0.790              1.409              0.864
 Vibration    30          0.791              1.404              0.858
 Vibration    31          0.794              1.398              0.849
 Vibration    32          0.794              1.398              0.849
 Vibration    33          0.838              1.290              0.705
 Vibration    34          0.849              1.266              0.676
 Vibration    35          0.849              1.266              0.676
 Vibration    36          0.907              1.136              0.541
 Vibration    37          0.907              1.136              0.541
 Vibration    38          0.916              1.117              0.523
 Vibration    39          0.918              1.114              0.520
 Vibration    40          0.925              1.098              0.506
 Vibration    41          0.933              1.082              0.492
 Vibration    42          0.938              1.073              0.484
 Vibration    43          0.938              1.073              0.484
 Vibration    44          0.938              1.072              0.483
 Vibration    45          0.967              1.015              0.437

 Optimization completed.
    -- Stationary point found.
 Normal termination of Gaussian 16 at Fri Aug  7 00:22:37 2020.
