 Gaussian 16, Revision C.01,
 Gaussian 16:  ES64L-G16RevC.01  3-Jul-2019

 ----------------------------------------------------------------------
 #P B3LYP/6-311++G(d,p) EmpiricalDispersion=GD3 freq(noraman) SCF=YQC N
 oSymm
 ----------------------------------------------------------------------

 --------------------------------------
 Restart from F_Hydrazide_Hydrazone.log
 --------------------------------------
 Symbolic Z-matrix:
 Charge =  0 Multiplicity = 1

                          Input orientation:
 ---------------------------------------------------------------------
 Center     Atomic      Atomic             Coordinates (Angstroms)
 Number     Number       Type             X           Y           Z
 ---------------------------------------------------------------------
      1          9           0        1.378399   -2.207008    0.786735
      2          6           0        0.711036   -1.106777    0.388361
      3          6           0       -0.677281   -1.141112    0.392395
      4          9           0       -1.288201   -2.253493    0.806778
      5          6           0       -1.419578   -0.028217    0.000638
      6          6           0       -0.711066    1.106551   -0.388062
      7          9           0       -1.378433    2.206782   -0.786431
      8          6           0        0.677250    1.140886   -0.392096
      9          9           0        1.288171    2.253268   -0.806476
     10          6           0        1.419547    0.027992   -0.000341
     11          6           0       -2.930750   -0.123520   -0.093612
     12          8           0       -3.468895   -1.026136   -0.688306
     13          7           0       -3.575379    0.896876    0.565889
     14          1           0       -3.022615    1.635447    0.994358
     15          7           0       -4.931226    0.991263    0.547170
     16          6           0       -5.452252    2.000456    1.137546
     17          6           0       -6.899490    2.206474    1.187944
     18          1           0       -4.829859    2.757763    1.632908
     19          6           0       -7.403980    3.339755    1.840902
     20          6           0       -8.776535    3.566765    1.906175
     21          1           0       -6.718319    4.045858    2.298689
     22          6           0       -9.659015    2.662694    1.319149
     23          1           0       -9.154981    4.446622    2.413650
     24          6           0       -9.163471    1.529904    0.666150
     25          1           0      -10.727882    2.836818    1.368343
     26          6           0       -7.796454    1.299264    0.598754
     27          1           0       -9.849701    0.825892    0.209290
     28          1           0       -7.404549    0.424288    0.094920
     29          6           0        2.930719    0.123301    0.093916
     30          8           0        3.468858    1.025963    0.688545
     31          7           0        3.575361   -0.897023   -0.565687
     32          1           0        3.022609   -1.635597   -0.994167
     33          7           0        4.931215   -0.991331   -0.547070
     34          6           0        5.452257   -2.000460   -1.137543
     35          6           0        6.899502   -2.206394   -1.188051
     36          1           0        4.829872   -2.757772   -1.632906
     37          6           0        7.404011   -3.339609   -1.841110
     38          6           0        8.776574   -3.566539   -1.906490
     39          1           0        6.718358   -4.045723   -2.298893
     40          6           0        9.659044   -2.662454   -1.319469
     41          1           0        9.155034   -4.446345   -2.414042
     42          6           0        9.163482   -1.529731   -0.666369
     43          1           0       10.727917   -2.836516   -1.368746
     44          6           0        7.796456   -1.299170   -0.598867
     45          1           0        9.849704   -0.825708   -0.209514
     46          1           0        7.404536   -0.424246   -0.094955
 ---------------------------------------------------------------------

 SCF Done:  E(RB3LYP) =  -1615.99798920     a.u. after    9 cycles
 SCF Done:  E(RB3LYP) =  -1615.99801117     A.U. after   10 cycles

 Alpha  occ. eigenvalues --  -24.73623 -24.73623 -24.72811 -24.72811 -19.12215
 Alpha  occ. eigenvalues --  -19.12215 -14.40568 -14.40568 -14.37376 -14.37376
 Alpha  occ. eigenvalues --  -10.31503 -10.31503 -10.31374 -10.31372 -10.31270
 Alpha  occ. eigenvalues --  -10.31269 -10.24720 -10.24719 -10.23905 -10.23905
 Alpha  occ. eigenvalues --  -10.20493 -10.20493 -10.19622 -10.19622 -10.19273
 Alpha  occ. eigenvalues --  -10.19273 -10.19192 -10.19192 -10.19028 -10.19028
 Alpha  occ. eigenvalues --  -10.18933 -10.18933  -1.28273  -1.28208  -1.26722
 Alpha  occ. eigenvalues --   -1.26678  -1.08701  -1.08689  -1.03343  -1.03341
 Alpha  occ. eigenvalues --   -0.93148  -0.89636  -0.89296  -0.86987  -0.86585
 Alpha  occ. eigenvalues --   -0.82749  -0.80251  -0.78139  -0.77636  -0.76592
 Alpha  occ. eigenvalues --   -0.76555  -0.72785  -0.68515  -0.68330  -0.67111
 Alpha  occ. eigenvalues --   -0.64046  -0.63969  -0.62542  -0.62501  -0.62430
 Alpha  occ. eigenvalues --   -0.61773  -0.61039  -0.59926  -0.59543  -0.56836
 Alpha  occ. eigenvalues --   -0.56252  -0.55723  -0.54426  -0.54038  -0.53029
 Alpha  occ. eigenvalues --   -0.52993  -0.52393  -0.52333  -0.52090  -0.49628
 Alpha  occ. eigenvalues --   -0.49151  -0.48018  -0.47991  -0.47021  -0.46858
 Alpha  occ. eigenvalues --   -0.46701  -0.46153  -0.46129  -0.45786  -0.45222
 Alpha  occ. eigenvalues --   -0.44383  -0.44312  -0.44095  -0.43918  -0.43905
 Alpha  occ. eigenvalues --   -0.42603  -0.42000  -0.40742  -0.40640  -0.38951
 Alpha  occ. eigenvalues --   -0.37858  -0.37411  -0.37292  -0.37277  -0.36318
 Alpha  occ. eigenvalues --   -0.36315  -0.31903  -0.31535  -0.31048  -0.30585
 Alpha  occ. eigenvalues --   -0.30581  -0.29405  -0.28710  -0.28128  -0.27370
 Alpha  occ. eigenvalues --   -0.27370  -0.24580  -0.24492
 Alpha virt. eigenvalues --   -0.09392  -0.07661  -0.06431  -0.04378  -0.03560
 Alpha virt. eigenvalues --   -0.02969  -0.02943  -0.01792  -0.01140  -0.00870
 Alpha virt. eigenvalues --   -0.00829  -0.00081   0.00097   0.00783   0.01088

 Mulliken charges:
               1
     1  F   -0.177653
     2  C   -0.641695
     3  C   -0.316483
     4  F   -0.165252
     5  C    1.248770
     6  C   -0.641695
     7  F   -0.177649
     8  C   -0.316399
     9  F   -0.165249
    10  C    1.248802
    11  C   -0.018782
    12  O   -0.264646
    13  N   -0.000261
    14  H    0.252589
    15  N    0.226908
    16  C   -0.328592
    17  C    0.683928
    18  H    0.105434
    19  C   -0.708855
    20  C   -0.275259
    21  H    0.149543
    22  C   -0.280278
    23  H    0.169305
    24  C   -0.563557
    25  H    0.160527
    26  C    0.344041
    27  H    0.183710
    28  H    0.216527
    29  C   -0.018851
    30  O   -0.264648
    31  N   -0.000238
    32  H    0.252584
    33  N    0.226881
    34  C   -0.328547
    35  C    0.683898
    36  H    0.105435
    37  C   -0.708843
    38  C   -0.275264
    39  H    0.149544
    40  C   -0.280272
    41  H    0.169304
    42  C   -0.563554
    43  H    0.160527
    44  C    0.344027
    45  H    0.183710
    46  H    0.216528
 Sum of Mulliken charges =  -0.00000

 Dipole moment (field-independent basis, Debye):
    X=              0.0001    Y=              0.0001    Z=             -0.0002  Tot=              0.0002
 Quadrupole moment (field-independent basis, Debye-Ang):
   XX=           -144.2925   YY=           -174.0442   ZZ=           -180.4857
   XY=            -39.5397   XZ=            -22.5652   YZ=             15.3193

  Exact polarizability:     581.179    -104.852     301.092     -49.978      55.926     193.029
 Approx polarizability:     678.280     -86.494     524.080     -37.860     100.226     318.683

                      1                      2                      3
                      A                      A                      A
 Frequencies --      8.6566                15.3677                21.4897
 Red. masses --      7.6417                 7.2408                 3.7343
 Frc consts  --      0.0003                 0.0010                 0.0010
 IR Inten    --      1.0929                 0.8065                 1.7467

                      4                      5                      6
                      A                      A                      A
 Frequencies --     22.0495                27.6051                39.8129
 Red. masses --      6.6294                 6.1427                 7.2064
 Frc consts  --      0.0019                 0.0028                 0.0067
 IR Inten    --      0.0000                 0.0000                 0.0000

                      7                      8                      9
                      A                      A                      A
 Frequencies --     53.5668                54.7031                71.2574
 Red. masses --      5.7876                 5.9634                 7.6542
 Frc consts  --      0.0098                 0.0105                 0.0229
 IR Inten    --      6.9467                 0.0000                 9.5415

                     10                     11                     12
                      A                      A                      A
 Frequencies --     89.2175               105.2277               116.5807
 Red. masses --      6.7128                 7.3031                 6.9142
 Frc consts  --      0.0315                 0.0476                 0.0554
 IR Inten    --      0.0000                 8.0059                 0.0000

                     13                     14                     15
                      A                      A                      A
 Frequencies --    126.5207               143.1805               144.9283
 Red. masses --     17.9658                 7.4709                10.2524
 Frc consts  --      0.1694                 0.0902                 0.1269
 IR Inten    --      0.1935                 4.2633                 0.0000

                     16                     17                     18
                      A                      A                      A
 Frequencies --    158.7752               165.6688               220.4579
 Red. masses --      9.6485                 8.5565                 8.1101
 Frc consts  --      0.1433                 0.1384                 0.2322
 IR Inten    --     10.6942                 0.0000                14.3379

                     19                     20                     21
                      A                      A                      A
 Frequencies --    226.1104               234.3180               240.1412
 Red. masses --      3.9233                 3.3339                 4.8174
 Frc consts  --      0.1182                 0.1078                 0.1637
 IR Inten    --      0.0000                18.4270                 0.0000

                     22                     23                     24
                      A                      A                      A
 Frequencies --    245.2452               271.4353               307.2923
 Red. masses --      6.6726                10.4552                15.9472
 Frc consts  --      0.2365                 0.4539                 0.8872
 IR Inten    --      3.3714                 0.0000                 0.0000

                     25                     26                     27
                      A                      A                      A
 Frequencies --    314.0991               319.1523               324.5989
 Red. masses --     17.6431                12.9100                 5.3883
 Frc consts  --      1.0256                 0.7748                 0.3345
 IR Inten    --      1.3645                 1.3002                 0.0000

                     28                     29                     30
                      A                      A                      A
 Frequencies --    326.2651               352.2688               406.5760
 Red. masses --      5.1634                 8.2353                 7.3940
 Frc consts  --      0.3238                 0.6021                 0.7201
 IR Inten    --      3.6180                 0.0000                42.0347

                     31                     32                     33
                      A                      A                      A
 Frequencies --    408.7130               410.0411               410.0727
 Red. masses --     11.4582                 2.9052                 2.9506
 Frc consts  --      1.1277                 0.2878                 0.2923
 IR Inten    --      0.0000                 0.1239                 0.0000

                     34                     35                     36
                      A                      A                      A
 Frequencies --    436.4709               440.8546               456.0946
 Red. masses --     11.0950                 9.8900                 6.0511
 Frc consts  --      1.2453                 1.1325                 0.7416
 IR Inten    --     18.2982                 0.0000                 0.0000

                     37                     38                     39
                      A                      A                      A
 Frequencies --    484.7747               495.7293               501.0744
 Red. masses --      4.1084                 2.5129                 2.2491
 Frc consts  --      0.5689                 0.3638                 0.3327
 IR Inten    --      0.0000                25.1055                27.6730

                     40                     41                     42
                      A                      A                      A
 Frequencies --    510.9105               517.0063               522.6152
 Red. masses --      4.3029                 3.3802                 2.7884
 Frc consts  --      0.6618                 0.5323                 0.4487
 IR Inten    --      0.0000                 0.0000                69.4279

                     43                     44                     45
                      A                      A                      A
 Frequencies --    524.1367               618.2918               632.2004
 Red. masses --      2.2698                 6.3512                 6.4941
 Frc consts  --      0.3674                 1.4305                 1.5293
 IR Inten    --      0.0001                 1.6960                 0.0000

                     46                     47                     48
                      A                      A                      A
 Frequencies --    632.2754               646.6428               662.6827
 Red. masses --      6.4903                 6.6054                 6.6336
 Frc consts  --      1.5287                 1.6273                 1.7164
 IR Inten    --      0.3198                 0.0000                12.6918

                     49                     50                     51
                      A                      A                      A
 Frequencies --    662.7922               687.2215               700.8642
 Red. masses --      7.1915                11.5729                 1.8636
 Frc consts  --      1.8613                 3.2202                 0.5393
 IR Inten    --      0.0000                 2.2314                 0.0004

                     52                     53                     54
                      A                      A                      A
 Frequencies --    700.8987               751.3743               761.9905
 Red. masses --      1.8656                10.5384                11.0570
 Frc consts  --      0.5400                 3.5054                 3.7826
 IR Inten    --     75.2650                85.3381                 0.0000

                     55                     56                     57
                      A                      A                      A
 Frequencies --    767.2109               769.5711               769.6279
 Red. masses --     11.2325                 1.7343                 1.7376
 Frc consts  --      3.8954                 0.6052                 0.6064
 IR Inten    --    149.7314                 0.0010                70.0785

                     58                     59                     60
                      A                      A                      A
 Frequencies --    811.9606               828.0456               855.6455
 Red. masses --      9.9985                 9.2178                 1.2515
 Frc consts  --      3.8838                 3.7238                 0.5399
 IR Inten    --      0.0000                 0.0000                 0.1768

                     61                     62                     63
                      A                      A                      A
 Frequencies --    855.6526               861.2493               883.1193
 Red. masses --      1.2515                 5.1345                 5.2455
 Frc consts  --      0.5399                 2.2439                 2.4103
 IR Inten    --      0.0000                 2.9583                 0.0000

                     64                     65                     66
                      A                      A                      A
 Frequencies --    928.7446               928.7637               969.3238
 Red. masses --      1.3539                 1.3536                 1.6585
 Frc consts  --      0.6880                 0.6879                 0.9181
 IR Inten    --      0.0694                 0.0000                25.0310

                     67                     68                     69
                      A                      A                      A
 Frequencies --    969.6011               972.7970               989.0393
 Red. masses --      1.5686                 6.2016                 1.3625
 Frc consts  --      0.8688                 3.4578                 0.7853
 IR Inten    --      0.0001                61.4018                 0.7675

                     70                     71                     72
                      A                      A                      A
 Frequencies --    989.0410               991.2723              1005.7313
 Red. masses --      1.3590                11.7163                 1.3050
 Frc consts  --      0.7832                 6.7831                 0.7777
 IR Inten    --      0.0551               175.5483                 0.0001

                     73                     74                     75
                      A                      A                      A
 Frequencies --   1005.7600              1013.8623              1014.3221
 Red. masses --      1.3053                 6.2827                 6.3026
 Frc consts  --      0.7779                 3.8050                 3.8205
 IR Inten    --      1.6480                 0.0000                 0.1079

                     76                     77                     78
                      A                      A                      A
 Frequencies --   1045.5212              1048.6797              1051.6502
 Red. masses --      3.6510                 2.1421                 2.9900
 Frc consts  --      2.3514                 1.3880                 1.9483
 IR Inten    --      0.0000                20.3582                 0.0000

                     79                     80                     81
                      A                      A                      A
 Frequencies --   1092.9939              1102.1069              1116.8167
 Red. masses --      4.0505                 2.3359                 2.0298
 Frc consts  --      2.8510                 1.6717                 1.4916
 IR Inten    --     89.6037                 0.0000                 8.3798

                     82                     83                     84
                      A                      A                      A
 Frequencies --   1124.2376              1137.6692              1192.7442
 Red. masses --      3.4520                10.5324                 1.2089
 Frc consts  --      2.5706                 8.0317                 1.0133
 IR Inten    --      0.0000                 0.0000                59.7122

                     85                     86                     87
                      A                      A                      A
 Frequencies --   1192.8076              1193.4121              1208.1805
 Red. masses --      1.1254                 2.7503                 1.1592
 Frc consts  --      0.9434                 2.3079                 0.9969
 IR Inten    --      0.0009               606.8107                 0.0000

                     88                     89                     90
                      A                      A                      A
 Frequencies --   1208.5897              1231.4855              1252.7835
 Red. masses --      1.1535                 2.9214                 2.2281
 Frc consts  --      0.9927                 2.6103                 2.0603
 IR Inten    --     51.2843                 0.0000               149.4747

                     91                     92                     93
                      A                      A                      A
 Frequencies --   1255.7202              1310.2618              1314.5930
 Red. masses --      2.2615                 9.0920                 9.5573
 Frc consts  --      2.1010                 9.1966                 9.7312
 IR Inten    --      0.0000               425.0427               243.9506

                     94                     95                     96
                      A                      A                      A
 Frequencies --   1331.8267              1331.8274              1358.0564
 Red. masses --      3.5581                 3.5604                 1.7138
 Frc consts  --      3.7184                 3.7208                 1.8622
 IR Inten    --      2.0232                 3.5119                 0.0037

                     97                     98                     99
                      A                      A                      A
 Frequencies --   1358.0677              1394.2700              1396.6013
 Red. masses --      1.7133                 2.8561                 1.4318
 Frc consts  --      1.8617                 3.2713                 1.6454
 IR Inten    --      6.8546                 0.0000                59.1948

                    100                    101                    102
                      A                      A                      A
 Frequencies --   1399.3036              1464.3414              1479.3617
 Red. masses --      2.3173                11.4772                 2.2455
 Frc consts  --      2.6733                14.5001                 2.8954
 IR Inten    --      0.0000                42.6993                32.2694

                    103                    104                    105
                      A                      A                      A
 Frequencies --   1479.4066              1491.8823              1524.4846
 Red. masses --      2.2171                11.2708                 2.1487
 Frc consts  --      2.8590                14.7799                 2.9422
 IR Inten    --      0.0036               374.7638                67.1713

                    106                    107                    108
                      A                      A                      A
 Frequencies --   1524.6142              1565.2868              1568.5580
 Red. masses --      2.1575                 1.7432                 1.7733
 Frc consts  --      2.9547                 2.5165                 2.5706
 IR Inten    --      0.0001               803.3279                 0.0006

                    109                    110                    111
                      A                      A                      A
 Frequencies --   1612.5482              1613.5984              1613.6665
 Red. masses --     10.4744                 5.3215                 5.5991
 Frc consts  --     16.0473                 8.1635                 8.5901
 IR Inten    --      0.0000                 1.7785                 0.0001

                    112                    113                    114
                      A                      A                      A
 Frequencies --   1640.9618              1640.9729              1669.7005
 Red. masses --      5.2137                 5.2103                10.5239
 Frc consts  --      8.2716                 8.2664                17.2863
 IR Inten    --     28.8509                 0.0474                 0.0000

                    115                    116                    117
                      A                      A                      A
 Frequencies --   1676.5180              1678.3815              1778.9467
 Red. masses --      7.4921                 8.2012                11.3731
 Frc consts  --     12.4071                13.6116                21.2057
 IR Inten    --     35.8907                 0.0000                 0.0003

                    118                    119                    120
                      A                      A                      A
 Frequencies --   1779.8330              3009.2393              3009.2550
 Red. masses --     11.4678                 1.0866                 1.0866
 Frc consts  --     21.4037                 5.7973                 5.7973
 IR Inten    --    867.7895                 3.2879                89.5263

                    121                    122                    123
                      A                      A                      A
 Frequencies --   3155.0474              3155.0497              3166.0296
 Red. masses --      1.0877                 1.0877                 1.0876
 Frc consts  --      6.3791                 6.3791                 6.4231
 IR Inten    --      4.2080                 8.4556                 0.3406

                    124                    125                    126
                      A                      A                      A
 Frequencies --   3166.0324              3177.2457              3177.2489
 Red. masses --      1.0876                 1.0915                 1.0915
 Frc consts  --      6.4231                 6.4922                 6.4922
 IR Inten    --      0.0119                 3.2663                29.2202

                    127                    128                    129
                      A                      A                      A
 Frequencies --   3188.6789              3188.6918              3197.8616
 Red. masses --      1.0959                 1.0959                 1.0953
 Frc consts  --      6.5653                 6.5653                 6.5996
 IR Inten    --     36.5353                 0.4565                13.3435

                    130                    131                    132
                      A                      A                      A
 Frequencies --   3197.8687              3491.1019              3491.1886
 Red. masses --      1.0953                 1.0771                 1.0770
 Frc consts  --      6.5997                 7.7342                 7.7344
 IR Inten    --      0.3844                35.0972                 0.0166

 - Thermochemistry -
 -------------------
 Temperature   298.150 Kelvin.  Pressure   1.00000 Atm.
 Atom     1 has atomic number  9 and mass  18.99840

 Molecular mass:   442.10529 amu.
 Principal axes and moments of inertia in atomic units:
                           1         2         3
     Eigenvalues --  3110.26321********************
           X            0.95515   0.26939   0.12297
           Y           -0.26535   0.96293  -0.04843
           Z           -0.13146   0.01363   0.99123
 This molecule is an asymmetric top.
 Rotational symmetry number  1.
 Warning -- assumption of classical behavior for rotation
           may cause significant error
 Rotational temperatures (Kelvin)      0.02785     0.00164     0.00158
 Rotational constants (GHZ):           0.58025     0.03407     0.03288
 Zero-point vibrational energy     850140.8 (Joules/Mol)
                                  203.18854 (Kcal/Mol)
 Warning -- explicit consideration of  44 degrees of freedom as
           vibrations may cause significant error
 Vibrational temperatures:     12.45    22.11    30.92    31.72    39.72
          (Kelvin)             57.28    77.07    78.71   102.52   128.36
                              151.40   167.73   182.04   206.00   208.52
                              228.44   238.36   317.19   325.32   337.13
                              345.51   352.85   390.53   442.13   451.92
                              459.19   467.03   469.42   506.84   584.97
                              588.05   589.96   590.00   627.98   634.29
                              656.22   697.48   713.24   720.93   735.09
                              743.86   751.93   754.12   889.58   909.60
                              909.70   930.37   953.45   953.61   988.76
                             1008.39  1008.44  1081.06  1096.33  1103.85
                             1107.24  1107.32  1168.23  1191.37  1231.08
                             1231.09  1239.15  1270.61  1336.26  1336.28
                             1394.64  1395.04  1399.64  1423.01  1423.01
                             1426.22  1447.02  1447.06  1458.72  1459.38
                             1504.27  1508.82  1513.09  1572.57  1585.69
                             1606.85  1617.53  1636.85  1716.09  1716.18
                             1717.05  1738.30  1738.89  1771.83  1802.48
                             1806.70  1885.17  1891.41  1916.20  1916.20
                             1953.94  1953.96  2006.04  2009.40  2013.29
                             2106.86  2128.47  2128.54  2146.49  2193.39
                             2193.58  2252.10  2256.81  2320.10  2321.61
                             2321.71  2360.98  2360.99  2402.33  2412.14
                             2414.82  2559.51  2560.78  4329.62  4329.65
                             4539.41  4539.41  4555.21  4555.21  4571.35
                             4571.35  4587.80  4587.82  4601.01  4601.02
                             5022.92  5023.04

 Zero-point correction=                           0.323802 (Hartree/Particle)
 Thermal correction to Energy=                    0.351728
 Thermal correction to Enthalpy=                  0.352672
 Thermal correction to Gibbs Free Energy=         0.259775
 Sum of electronic and zero-point Energies=          -1615.674210
 Sum of electronic and thermal Energies=             -1615.646283
 Sum of electronic and thermal Enthalpies=           -1615.645339
 Sum of electronic and thermal Free Energies=        -1615.738237

                     E (Thermal)             CV                S
                      KCal/Mol        Cal/Mol-Kelvin    Cal/Mol-Kelvin
 Total                  220.713            104.085            195.519
 Electronic               0.000              0.000              0.000
 Translational            0.889              2.981             44.149
 Rotational               0.889              2.981             37.445
 Vibrational            218.935             98.124            113.926
 Vibration     1          0.593              1.987              8.298
 Vibration     2          0.593              1.986              7.157
 Vibration     3          0.593              1.985              6.492
 Vibration     4          0.593              1.985              6.440
 Vibration     5          0.593              1.984              5.994
 Vibration     6          0.594              1.981              5.268
 Vibration     7          0.596              1.976              4.681
 Vibration     8          0.596              1.976              4.640
 Vibration     9          0.598              1.968              4.118
 Vibration    10          0.602              1.957              3.677
 Vibration    11          0.605              1.945              3.355
 Vibration    12          0.608              1.936              3.156
 Vibration    13          0.611              1.927              2.998
 Vibration    14          0.616              1.910              2.761
 Vibration    15          0.616              1.908              2.738
 Vibration    16          0.621              1.893              2.564
 Vibration    17          0.624              1.885              2.484
 Vibration    18          0.647              1.810              1.955
 Vibration    19          0.650              1.801              1.910
 Vibration    20          0.654              1.788              1.846
 Vibration    21          0.657              1.779              1.802
 Vibration    22          0.660              1.771              1.765
 Vibration    23          0.675              1.726              1.587
 Vibration    24          0.697              1.660              1.377
 Vibration    25          0.702              1.647              1.341
 Vibration    26          0.705              1.637              1.314
 Vibration    27          0.709              1.626              1.287
 Vibration    28          0.710              1.623              1.279
 Vibration    29          0.729              1.571              1.156
 Vibration    30          0.771              1.456              0.939
 Vibration    31          0.773              1.451              0.931
 Vibration    32          0.774              1.448              0.926
 Vibration    33          0.774              1.448              0.926
 Vibration    34          0.797              1.391              0.838
 Vibration    35          0.801              1.381              0.824
 Vibration    36          0.814              1.347              0.778
 Vibration    37          0.841              1.284              0.697
 Vibration    38          0.851              1.259              0.669
 Vibration    39          0.856              1.248              0.655
 Vibration    40          0.866              1.226              0.631
 Vibration    41          0.872              1.212              0.617
 Vibration    42          0.878              1.200              0.604
 Vibration    43          0.879              1.197              0.600
 Vibration    44          0.978              0.993              0.419

 Optimization completed.
    -- Stationary point found.
 Normal termination of Gaussian 16 at Sat Oct 17 03:38:41 2020.
