 Gaussian 16, Revision C.01,
 Gaussian 16:  ES64L-G16RevC.01  3-Jul-2019

 --------------------------------------------------------------------
 #P B3LYP/6-311++G(d,p) EmpiricalDispersion=GD3 freq(noraman) SCF=YQC
 --------------------------------------------------------------------

 -----------------------------------------
 Restart from TPG_BoronicAcid_Boroxine.log
 -----------------------------------------
 Symbolic Z-matrix:
 Charge =  0 Multiplicity = 1

                         Standard orientation:
 ---------------------------------------------------------------------
 Center     Atomic      Atomic             Coordinates (Angstroms)
 Number     Number       Type             X           Y           Z
 ---------------------------------------------------------------------
      1          6           0       -0.709540    1.258120   -0.000101
      2          6           0        0.710735    1.201535   -0.000326
      3          8           0        1.443058    2.320314   -0.000482
      4          6           0        1.444508   -0.014416   -0.000452
      5          6           0        0.685320   -1.216128   -0.000501
      6          8           0        1.288006   -2.409753   -0.000452
      7          6           0       -0.734565   -1.243729   -0.000313
      8          6           0       -1.395672    0.014685   -0.000117
      9          8           0       -2.730709    0.089707    0.000057
     10          1           0        2.256163   -2.294380   -0.000578
     11          1           0       -3.114739   -0.806492    0.000885
     12          1           0        0.858942    3.100980   -0.000707
     13          5           0       -1.462025    2.600312   -0.000200
     14          8           0       -0.708252    3.796627   -0.000264
     15          5           0       -1.302864    5.041742    0.000032
     16          8           0       -2.832450    2.754205    0.000005
     17          5           0       -3.440577    3.978919    0.000033
     18          8           0       -2.670235    5.129241    0.000099
     19          1           0       -0.626945    6.015242    0.000313
     20          1           0       -4.622473    4.064476    0.000096
     21          5           0        2.983129   -0.033935   -0.000258
     22          8           0        3.642155   -1.284980   -0.000559
     23          5           0        5.017720   -1.392877    0.000040
     24          8           0        3.801750    1.075874    0.000344
     25          5           0        5.166425    0.989816    0.001042
     26          8           0        5.777286   -0.252574    0.000951
     27          1           0        5.522631   -2.465083   -0.000506
     28          1           0        5.831670    1.970455    0.001482
     29          5           0       -1.520828   -2.566500    0.000180
     30          8           0       -2.933818   -2.511409    0.001102
     31          5           0       -3.715259   -3.648618    0.001016
     32          8           0       -0.969262   -3.830459   -0.000546
     33          5           0       -1.726305   -4.969129   -0.000601
     34          8           0       -3.107642   -4.876661    0.000079
     35          1           0       -4.896258   -3.549621    0.001917
     36          1           0       -1.209878   -6.035665   -0.001138
 ---------------------------------------------------------------------

 SCF Done:  E(RB3LYP) =  -1361.77201211     a.u. after    6 cycles
 SCF Done:  E(RB3LYP) =  -1361.77203753     A.U. after   10 cycles

 The electronic state is 1-A.
 Alpha  occ. eigenvalues --  -19.17236 -19.17236 -19.17235 -19.16226 -19.16225
 Alpha  occ. eigenvalues --  -19.16225 -19.16122 -19.16121 -19.16121 -19.15532
 Alpha  occ. eigenvalues --  -19.15531 -19.15530 -10.27490 -10.27490 -10.27489
 Alpha  occ. eigenvalues --  -10.17228 -10.17227 -10.17225  -6.82508  -6.82508
 Alpha  occ. eigenvalues --   -6.82507  -6.82396  -6.82393  -6.82392  -6.81804
 Alpha  occ. eigenvalues --   -6.81804  -6.81803  -1.10159  -1.09924  -1.09923
 Alpha  occ. eigenvalues --   -1.08509  -1.08504  -1.08503  -1.03916  -1.03894
 Alpha  occ. eigenvalues --   -1.03893  -1.03410  -1.03356  -1.03355  -0.85614
 Alpha  occ. eigenvalues --   -0.76129  -0.76128  -0.65987  -0.65987  -0.63083
 Alpha  occ. eigenvalues --   -0.62034  -0.61226  -0.61225  -0.60061  -0.59937
 Alpha  occ. eigenvalues --   -0.59937  -0.55945  -0.55850  -0.55850  -0.52374
 Alpha  occ. eigenvalues --   -0.52105  -0.52104  -0.50802  -0.49915  -0.49915
 Alpha  occ. eigenvalues --   -0.47794  -0.47276  -0.47276  -0.46431  -0.44798
 Alpha  occ. eigenvalues --   -0.42790  -0.42789  -0.42339  -0.41651  -0.41651
 Alpha  occ. eigenvalues --   -0.41626  -0.41625  -0.41355  -0.40328  -0.40327
 Alpha  occ. eigenvalues --   -0.39454  -0.39391  -0.39390  -0.38687  -0.38686
 Alpha  occ. eigenvalues --   -0.38673  -0.38464  -0.38464  -0.37700  -0.35891
 Alpha  occ. eigenvalues --   -0.34736  -0.34736  -0.33281  -0.33280  -0.33078
 Alpha  occ. eigenvalues --   -0.30558  -0.24884  -0.24883
 Alpha virt. eigenvalues --   -0.05643  -0.05642  -0.03921  -0.03425  -0.03416
 Alpha virt. eigenvalues --   -0.03415  -0.01385  -0.00109  -0.00109   0.00079
 Alpha virt. eigenvalues --    0.00079   0.00291   0.01630   0.01630   0.01716

 Mulliken charges:
               1
     1  C    0.201659
     2  C   -0.626249
     3  O   -0.354626
     4  C    0.201925
     5  C   -0.625668
     6  O   -0.354555
     7  C    0.201859
     8  C   -0.626138
     9  O   -0.354764
    10  H    0.588326
    11  H    0.588627
    12  H    0.588401
    13  B    0.922790
    14  O   -0.807699
    15  B    0.584809
    16  O   -0.621103
    17  B    0.486061
    18  O   -0.386763
    19  H    0.005625
    20  H    0.006675
    21  B    0.922653
    22  O   -0.807673
    23  B    0.585037
    24  O   -0.621000
    25  B    0.485870
    26  O   -0.386771
    27  H    0.005626
    28  H    0.006646
    29  B    0.922793
    30  O   -0.807728
    31  B    0.585176
    32  O   -0.621042
    33  B    0.485732
    34  O   -0.386797
    35  H    0.005647
    36  H    0.006636
 Sum of Mulliken charges =   0.00000

 Dipole moment (field-independent basis, Debye):
    X=             -0.0008    Y=             -0.0005    Z=              0.0007  Tot=              0.0012
 Quadrupole moment (field-independent basis, Debye-Ang):
   XX=           -158.9738   YY=           -158.9748   ZZ=           -145.2890
   XY=              0.0002   XZ=             -0.0018   YZ=             -0.0075

  Exact polarizability:     289.056      -0.000     289.044      -0.009       0.011     117.027
 Approx polarizability:     380.696       0.000     380.687      -0.016       0.013     188.629

                      1                      2                      3
                      A                      A                      A
 Frequencies --     23.0483                23.5735                25.3672
 Red. masses --      6.0762                 6.0768                 6.8629
 Frc consts  --      0.0019                 0.0020                 0.0026
 IR Inten    --      0.0021                 0.0000                 0.0380

                      4                      5                      6
                      A                      A                      A
 Frequencies --     37.6435                58.0071                58.1984
 Red. masses --      6.7754                 8.6739                 8.6602
 Frc consts  --      0.0057                 0.0172                 0.0173
 IR Inten    --      0.3164                 0.0000                 0.0000

                      7                      8                      9
                      A                      A                      A
 Frequencies --     89.9153                89.9725                98.0390
 Red. masses --      7.6086                 7.6093                13.1565
 Frc consts  --      0.0362                 0.0363                 0.0745
 IR Inten    --      0.6469                 0.6477                 0.0000

                     10                     11                     12
                      A                      A                      A
 Frequencies --     98.0798               116.5215               185.7107
 Red. masses --     13.1605                14.6109                 7.3826
 Frc consts  --      0.0746                 0.1169                 0.1500
 IR Inten    --      0.0000                 1.2907                 0.0000

                     13                     14                     15
                      A                      A                      A
 Frequencies --    204.5122               208.1648               208.2277
 Red. masses --      3.3308                 2.9685                 2.9699
 Frc consts  --      0.0821                 0.0758                 0.0759
 IR Inten    --      0.0432                 0.0000                 0.0000

                     16                     17                     18
                      A                      A                      A
 Frequencies --    217.7406               227.9303               251.0540
 Red. masses --      6.6590                10.3676                 9.1266
 Frc consts  --      0.1860                 0.3173                 0.3389
 IR Inten    --      0.0013                 0.0000                 0.1845

                     19                     20                     21
                      A                      A                      A
 Frequencies --    251.0558               281.9422               281.9650
 Red. masses --      9.1255                 3.8526                 3.8518
 Frc consts  --      0.3389                 0.1804                 0.1804
 IR Inten    --      0.1850                 0.0000                 0.0000

                     22                     23                     24
                      A                      A                      A
 Frequencies --    327.8766               332.9048               332.9223
 Red. masses --      2.2726                 9.6523                 9.6529
 Frc consts  --      0.1439                 0.6303                 0.6304
 IR Inten    --      1.5026                 0.0537                 0.0530

                     25                     26                     27
                      A                      A                      A
 Frequencies --    360.9259               360.9347               374.1763
 Red. masses --      3.4083                 3.4078                 7.7933
 Frc consts  --      0.2616                 0.2616                 0.6429
 IR Inten    --      0.0000                 0.0000                 0.0000

                     28                     29                     30
                      A                      A                      A
 Frequencies --    442.8421               442.8894               531.7473
 Red. masses --      6.5295                 6.5323                10.9339
 Frc consts  --      0.7544                 0.7549                 1.8215
 IR Inten    --      9.8760                 9.8778                69.7569

                     31                     32                     33
                      A                      A                      A
 Frequencies --    531.7815               557.1121               563.7131
 Red. masses --     10.9340                10.2552                10.0680
 Frc consts  --      1.8218                 1.8753                 1.8850
 IR Inten    --     69.6692                 0.0013                42.0809

                     34                     35                     36
                      A                      A                      A
 Frequencies --    563.7404               582.0052               609.4466
 Red. masses --     10.0666                 9.5192                10.4369
 Frc consts  --      1.8849                 1.8998                 2.2840
 IR Inten    --     41.9728                 0.0000                 0.0000

                     37                     38                     39
                      A                      A                      A
 Frequencies --    661.1367               661.2573               669.1570
 Red. masses --      3.2356                 3.2581                 4.5138
 Frc consts  --      0.8333                 0.8394                 1.1908
 IR Inten    --      0.0007                 0.0004                 0.8285

                     40                     41                     42
                      A                      A                      A
 Frequencies --    714.8648               715.1198               715.4807
 Red. masses --      1.2980                 1.3956                 1.3850
 Frc consts  --      0.3908                 0.4205                 0.4177
 IR Inten    --    139.7351                49.8169                56.6502

                     43                     44                     45
                      A                      A                      A
 Frequencies --    736.6015               736.6813               737.0358
 Red. masses --      6.9336                 6.9189                 5.7255
 Frc consts  --      2.2165                 2.2123                 1.8325
 IR Inten    --      5.4377                 5.3824                 0.0572

                     46                     47                     48
                      A                      A                      A
 Frequencies --    764.7367               764.7811               816.9566
 Red. masses --      7.2190                 7.1734                15.4774
 Frc consts  --      2.4874                 2.4720                 6.0862
 IR Inten    --      0.0005                 0.0004                 1.7852

                     49                     50                     51
                      A                      A                      A
 Frequencies --    817.0197               817.0526               831.5328
 Red. masses --     15.5439                15.5691                11.4478
 Frc consts  --      6.1133                 6.1237                 4.6637
 IR Inten    --      4.5223                 5.5895                44.2041

                     52                     53                     54
                      A                      A                      A
 Frequencies --    916.7603               916.9326               916.9363
 Red. masses --      1.5966                 1.5978                 1.5976
 Frc consts  --      0.7906                 0.7915                 0.7914
 IR Inten    --      0.2206                 0.0002                 0.0008

                     55                     56                     57
                      A                      A                      A
 Frequencies --    921.6792               921.6841               922.8007
 Red. masses --      1.8259                 1.8259                 1.8327
 Frc consts  --      0.9139                 0.9139                 0.9195
 IR Inten    --      0.0047                 0.0011               316.8931

                     58                     59                     60
                      A                      A                      A
 Frequencies --    978.0746               984.0971               984.1133
 Red. masses --      2.4226                 1.9848                 1.9849
 Frc consts  --      1.3655                 1.1325                 1.1326
 IR Inten    --      0.0001                19.9252                19.9539

                     61                     62                     63
                      A                      A                      A
 Frequencies --    989.3494              1026.0932              1026.1326
 Red. masses --      3.6196                 2.3365                 2.3356
 Frc consts  --      2.0874                 1.4494                 1.4490
 IR Inten    --      0.0002                 5.1151                 5.1198

                     64                     65                     66
                      A                      A                      A
 Frequencies --   1043.8737              1076.3248              1076.3403
 Red. masses --      1.8787                 3.5321                 3.5335
 Frc consts  --      1.2061                 2.4108                 2.4119
 IR Inten    --      0.0001                 3.5255                 3.5308

                     67                     68                     69
                      A                      A                      A
 Frequencies --   1136.7008              1136.7058              1139.3624
 Red. masses --      4.3429                 4.3417                 4.7337
 Frc consts  --      3.3061                 3.3052                 3.6206
 IR Inten    --     62.5093                62.5727                 0.0003

                     70                     71                     72
                      A                      A                      A
 Frequencies --   1169.0892              1169.1002              1177.3772
 Red. masses --      3.2073                 3.2058                 2.2505
 Frc consts  --      2.5828                 2.5816                 1.8381
 IR Inten    --      0.4286                 0.4241                 0.0038

                     73                     74                     75
                      A                      A                      A
 Frequencies --   1178.8161              1178.8451              1194.0854
 Red. masses --      2.5810                 2.5770                 3.0236
 Frc consts  --      2.1131                 2.1100                 2.5401
 IR Inten    --     19.6372                19.6868                 0.0002

                     76                     77                     78
                      A                      A                      A
 Frequencies --   1272.2224              1272.2786              1282.2191
 Red. masses --      4.8749                 4.8784                 6.0588
 Frc consts  --      4.6488                 4.6526                 5.8689
 IR Inten    --    466.0849               465.5905                 0.0104

                     79                     80                     81
                      A                      A                      A
 Frequencies --   1310.2595              1318.4258              1318.5493
 Red. masses --     10.4217                 4.5834                 4.5934
 Frc consts  --     10.5415                 4.6941                 4.7052
 IR Inten    --      0.0125               746.6531               746.9381

                     82                     83                     84
                      A                      A                      A
 Frequencies --   1352.7356              1357.2166              1357.2557
 Red. masses --      8.4736                 2.5582                 2.5579
 Frc consts  --      9.1358                 2.7764                 2.7762
 IR Inten    --      0.0003                29.8840                29.6167

                     85                     86                     87
                      A                      A                      A
 Frequencies --   1379.4221              1379.4512              1387.3611
 Red. masses --      7.9167                 7.9170                 6.2932
 Frc consts  --      8.8754                 8.8761                 7.1368
 IR Inten    --   2762.8070              2764.6681                 0.0223

                     88                     89                     90
                      A                      A                      A
 Frequencies --   1467.9282              1470.8366              1470.9187
 Red. masses --      1.6730                 4.8901                 4.8838
 Frc consts  --      2.1240                 6.2331                 6.2257
 IR Inten    --      0.8279               989.6041               986.5107

                     91                     92                     93
                      A                      A                      A
 Frequencies --   1486.7820              1619.9009              1619.9316
 Red. masses --      4.5372                 3.4279                 3.4234
 Frc consts  --      5.9093                 5.2997                 5.2930
 IR Inten    --      0.0010               678.8357               678.6612

                     94                     95                     96
                      A                      A                      A
 Frequencies --   2680.9524              2681.4344              2681.4566
 Red. masses --      1.0959                 1.0962                 1.0962
 Frc consts  --      4.6410                 4.6437                 4.6437
 IR Inten    --      0.2733               291.1736               290.2306

                     97                     98                     99
                      A                      A                      A
 Frequencies --   2689.9858              2690.0037              2691.5522
 Red. masses --      1.1022                 1.1022                 1.1028
 Frc consts  --      4.6991                 4.6992                 4.7072
 IR Inten    --    229.1355               228.3082                 0.0215

                    100                    101                    102
                      A                      A                      A
 Frequencies --   3569.3978              3569.4782              3570.2606
 Red. masses --      1.0670                 1.0670                 1.0673
 Frc consts  --      8.0093                 8.0097                 8.0152
 IR Inten    --   1055.4557              1049.1187                 6.1781

 - Thermochemistry -
 -------------------
 Temperature   298.150 Kelvin.  Pressure   1.00000 Atm.
 Atom     1 has atomic number  6 and mass  12.00000

 Molecular mass:   372.09315 amu.
 Principal axes and moments of inertia in atomic units:
                           1         2         3
     Eigenvalues --  ******************************
           X            1.00000  -0.00259  -0.00000
           Y            0.00259   1.00000   0.00000
           Z            0.00000  -0.00000   1.00000
 This molecule is an asymmetric top.
 Rotational symmetry number  1.
 Warning -- assumption of classical behavior for rotation
           may cause significant error
 Rotational temperatures (Kelvin)      0.00818     0.00818     0.00409
 Rotational constants (GHZ):           0.17038     0.17036     0.08518
 Zero-point vibrational energy     587609.2 (Joules/Mol)
                                  140.44198 (Kcal/Mol)
 Warning -- explicit consideration of  36 degrees of freedom as
           vibrations may cause significant error
 Vibrational temperatures:     33.16    33.92    36.50    54.16    83.46
          (Kelvin)             83.73   129.37   129.45   141.06   141.11
                              167.65   267.20   294.25   299.50   299.59
                              313.28   327.94   361.21   361.21   405.65
                              405.68   471.74   478.98   479.00   519.29
                              519.30   538.36   637.15   637.22   765.07
                              765.12   801.56   811.06   811.10   837.38
                              876.86   951.23   951.40   962.77  1028.53
                             1028.90  1029.42  1059.81  1059.92  1060.43
                             1100.29  1100.35  1175.42  1175.51  1175.56
                             1196.39  1319.01  1319.26  1319.27  1326.09
                             1326.10  1327.70  1407.23  1415.90  1415.92
                             1423.45  1476.32  1476.38  1501.90  1548.59
                             1548.61  1635.46  1635.47  1639.29  1682.06
                             1682.07  1693.98  1696.05  1696.10  1718.02
                             1830.44  1830.53  1844.83  1885.17  1896.92
                             1897.10  1946.28  1952.73  1952.79  1984.68
                             1984.72  1996.10  2112.02  2116.21  2116.32
                             2139.15  2330.68  2330.72  3857.29  3857.99
                             3858.02  3870.29  3870.32  3872.54  5135.57
                             5135.68  5136.81

 Zero-point correction=                           0.223809 (Hartree/Particle)
 Thermal correction to Energy=                    0.247038
 Thermal correction to Enthalpy=                  0.247982
 Thermal correction to Gibbs Free Energy=         0.168183
 Sum of electronic and zero-point Energies=          -1361.548229
 Sum of electronic and thermal Energies=             -1361.525000
 Sum of electronic and thermal Enthalpies=           -1361.524055
 Sum of electronic and thermal Free Energies=        -1361.603855

                     E (Thermal)             CV                S
                      KCal/Mol        Cal/Mol-Kelvin    Cal/Mol-Kelvin
 Total                  155.019             86.940            167.953
 Electronic               0.000              0.000              0.000
 Translational            0.889              2.981             43.635
 Rotational               0.889              2.981             36.118
 Vibrational            153.241             80.978             88.200
 Vibration     1          0.593              1.985              6.353
 Vibration     2          0.593              1.985              6.308
 Vibration     3          0.593              1.985              6.162
 Vibration     4          0.594              1.982              5.379
 Vibration     5          0.596              1.974              4.524
 Vibration     6          0.596              1.974              4.517
 Vibration     7          0.602              1.956              3.662
 Vibration     8          0.602              1.956              3.661
 Vibration     9          0.603              1.951              3.493
 Vibration    10          0.604              1.951              3.492
 Vibration    11          0.608              1.936              3.157
 Vibration    12          0.632              1.859              2.270
 Vibration    13          0.640              1.833              2.092
 Vibration    14          0.641              1.828              2.060
 Vibration    15          0.642              1.828              2.059
 Vibration    16          0.646              1.814              1.978
 Vibration    17          0.651              1.798              1.895
 Vibration    18          0.663              1.761              1.723
 Vibration    19          0.663              1.761              1.723
 Vibration    20          0.681              1.707              1.522
 Vibration    21          0.681              1.707              1.522
 Vibration    22          0.711              1.620              1.271
 Vibration    23          0.715              1.610              1.246
 Vibration    24          0.715              1.610              1.246
 Vibration    25          0.735              1.553              1.118
 Vibration    26          0.735              1.553              1.118
 Vibration    27          0.745              1.525              1.063
 Vibration    28          0.802              1.377              0.818
 Vibration    29          0.803              1.377              0.818
 Vibration    30          0.887              1.180              0.583
 Vibration    31          0.887              1.180              0.583
 Vibration    32          0.913              1.124              0.530
 Vibration    33          0.919              1.110              0.516
 Vibration    34          0.920              1.110              0.516
 Vibration    35          0.939              1.070              0.482
 Vibration    36          0.968              1.012              0.434

 Normal termination of Gaussian 16 at Thu Aug  6 23:50:06 2020.
