 Gaussian 16, Revision C.01,
 Gaussian 16:  ES64L-G16RevC.01  3-Jul-2019

 --------------------------------------------------------------------
 #P B3LYP/6-311++G(d,p) EmpiricalDispersion=GD3 freq(noraman) SCF=YQC
 --------------------------------------------------------------------

 ------------------------------------------
 Restart from An_Catechol_BoronateEster.log
 ------------------------------------------
 Symbolic Z-matrix:
 Charge =  0 Multiplicity = 1

                         Standard orientation:
 ---------------------------------------------------------------------
 Center     Atomic      Atomic             Coordinates (Angstroms)
 Number     Number       Type             X           Y           Z
 ---------------------------------------------------------------------
      1          6           0       -3.611535    0.711332   -0.000002
      2          6           0       -3.611534   -0.711342   -0.000002
      3          6           0       -2.467917   -1.441066   -0.000002
      4          6           0       -1.225458   -0.724493   -0.000002
      5          6           0       -2.467922    1.441062   -0.000002
      6          6           0       -1.225460    0.724492   -0.000002
      7          6           0       -0.000002   -1.397945   -0.000002
      8          6           0        1.225464   -0.724486   -0.000002
      9          6           0       -0.000006    1.397946   -0.000002
     10          6           0        1.225462    0.724490   -0.000002
     11          6           0        2.467915   -1.441057   -0.000002
     12          6           0        3.611536   -0.711329   -0.000002
     13          6           0        3.611534    0.711336   -0.000002
     14          6           0        2.467912    1.441063   -0.000002
     15          1           0       -2.483807   -2.523685   -0.000002
     16          1           0       -2.483818    2.523680   -0.000002
     17          1           0        0.000007   -2.483451   -0.000002
     18          1           0        0.000001    2.483452   -0.000002
     19          1           0        2.483815   -2.523676   -0.000002
     20          1           0        2.483813    2.523682   -0.000002
     21          5           0       -5.708124   -0.000005   -0.000006
     22          6           0       -7.243839   -0.000004    0.000000
     23          6           0       -7.961048    1.208275    0.000002
     24          6           0       -7.961056   -1.208276    0.000002
     25          6           0       -9.352885    1.209402    0.000005
     26          6           0       -9.352894   -1.209394    0.000005
     27          6           0      -10.049291    0.000006    0.000007
     28          8           0       -4.917168    1.147853   -0.000002
     29          8           0       -4.917166   -1.147863   -0.000002
     30          1           0       -9.895848    2.147919    0.000007
     31          1           0       -9.895863   -2.147907    0.000007
     32          1           0       -7.419019   -2.147665    0.000000
     33          1           0       -7.419004    2.147660    0.000000
     34          1           0      -11.133848    0.000010    0.000010
     35          5           0        5.708124    0.000007   -0.000006
     36          6           0        7.243840    0.000004    0.000000
     37          6           0        7.961047   -1.208275    0.000002
     38          6           0        7.961058    1.208276    0.000002
     39          6           0        9.352885   -1.209403    0.000005
     40          6           0        9.352896    1.209392    0.000005
     41          6           0       10.049292   -0.000008    0.000007
     42          8           0        4.917169   -1.147854   -0.000002
     43          8           0        4.917167    1.147865   -0.000002
     44          1           0        9.895847   -2.147921    0.000007
     45          1           0        9.895866    2.147906    0.000007
     46          1           0        7.419022    2.147665    0.000000
     47          1           0        7.419003   -2.147659    0.000000
     48          1           0       11.133849   -0.000013    0.000010
 ---------------------------------------------------------------------

 SCF Done:  E(RB3LYP) =  -1351.62379115     a.u. after    6 cycles
 SCF Done:  E(RB3LYP) =  -1351.62381348     A.U. after    9 cycles

 The electronic state is 1-A.
 Alpha  occ. eigenvalues --  -19.17182 -19.17182 -19.17180 -19.17180 -10.24636
 Alpha  occ. eigenvalues --  -10.24636 -10.24591 -10.24591 -10.19822 -10.19821
 Alpha  occ. eigenvalues --  -10.19784 -10.19784 -10.18931 -10.18931 -10.18896
 Alpha  occ. eigenvalues --  -10.18896 -10.18895 -10.18895 -10.18742 -10.18742
 Alpha  occ. eigenvalues --  -10.18742 -10.18742 -10.18470 -10.18470 -10.18466
 Alpha  occ. eigenvalues --  -10.18466 -10.18256 -10.18255 -10.17400 -10.17400
 Alpha  occ. eigenvalues --   -6.80242  -6.80242  -1.11960  -1.11960  -1.04593
 Alpha  occ. eigenvalues --   -1.04593  -0.89469  -0.86765  -0.86617  -0.86301
 Alpha  occ. eigenvalues --   -0.81002  -0.79932  -0.77229  -0.76258  -0.75921
 Alpha  occ. eigenvalues --   -0.75842  -0.75822  -0.73813  -0.72140  -0.66172
 Alpha  occ. eigenvalues --   -0.63970  -0.63067  -0.62522  -0.62080  -0.61839
 Alpha  occ. eigenvalues --   -0.61329  -0.61248  -0.58042  -0.57971  -0.57924
 Alpha  occ. eigenvalues --   -0.53771  -0.53697  -0.53423  -0.52554  -0.50876
 Alpha  occ. eigenvalues --   -0.48490  -0.47938  -0.47860  -0.47240  -0.46982
 Alpha  occ. eigenvalues --   -0.46796  -0.46521  -0.46327  -0.45696  -0.45344
 Alpha  occ. eigenvalues --   -0.44366  -0.43322  -0.43319  -0.42744  -0.42732
 Alpha  occ. eigenvalues --   -0.41932  -0.41410  -0.40438  -0.38880  -0.38837
 Alpha  occ. eigenvalues --   -0.38597  -0.38323  -0.38243  -0.38105  -0.38024
 Alpha  occ. eigenvalues --   -0.37410  -0.36089  -0.35489  -0.35353  -0.35328
 Alpha  occ. eigenvalues --   -0.34838  -0.34675  -0.34465  -0.30859  -0.29925
 Alpha  occ. eigenvalues --   -0.27485  -0.26769  -0.26700  -0.26512  -0.26442
 Alpha  occ. eigenvalues --   -0.23264  -0.20323
 Alpha virt. eigenvalues --   -0.07589  -0.05344  -0.04576  -0.02447  -0.02324
 Alpha virt. eigenvalues --   -0.01762  -0.01419  -0.00928  -0.00835  -0.00053
 Alpha virt. eigenvalues --    0.00072   0.00156   0.00734   0.00899   0.01196

 Mulliken charges:
               1
     1  C   -0.333655
     2  C   -0.333648
     3  C   -0.195599
     4  C    0.401983
     5  C   -0.195597
     6  C    0.401983
     7  C   -0.275579
     8  C    0.402000
     9  C   -0.275580
    10  C    0.401999
    11  C   -0.195596
    12  C   -0.333652
    13  C   -0.333648
    14  C   -0.195598
    15  H    0.165901
    16  H    0.165901
    17  H    0.061189
    18  H    0.061189
    19  H    0.165902
    20  H    0.165902
    21  B    0.667793
    22  C   -0.473386
    23  C   -0.021772
    24  C   -0.021775
    25  C   -0.106687
    26  C   -0.106687
    27  C   -0.347021
    28  O   -0.169033
    29  O   -0.169038
    30  H    0.179752
    31  H    0.179752
    32  H    0.187277
    33  H    0.187277
    34  H    0.150653
    35  B    0.667793
    36  C   -0.473388
    37  C   -0.021772
    38  C   -0.021775
    39  C   -0.106687
    40  C   -0.106686
    41  C   -0.347021
    42  O   -0.169034
    43  O   -0.169039
    44  H    0.179752
    45  H    0.179752
    46  H    0.187277
    47  H    0.187277
    48  H    0.150653
 Sum of Mulliken charges =   0.00000

 Dipole moment (field-independent basis, Debye):
    X=             -0.0001    Y=              0.0000    Z=             -0.0000  Tot=              0.0001
 Quadrupole moment (field-independent basis, Debye-Ang):
   XX=           -143.5658   YY=           -167.9483   ZZ=           -191.6471
   XY=             -0.0000   XZ=             -0.0000   YZ=             -0.0000

  Exact polarizability:     738.486       0.000     311.981      -0.000       0.000     162.515
 Approx polarizability:     910.956       0.000     592.374      -0.000      -0.000     266.543

                      1                      2                      3
                      A                      A                      A
 Frequencies --     14.2639                34.2363                34.8523
 Red. masses --      6.6573                 3.7249                 7.5326
 Frc consts  --      0.0008                 0.0026                 0.0054
 IR Inten    --      0.1893                 0.0000                 0.0000

                      4                      5                      6
                      A                      A                      A
 Frequencies --     38.2256                47.3755                62.4048
 Red. masses --      5.6530                 4.0524                 5.6650
 Frc consts  --      0.0049                 0.0054                 0.0130
 IR Inten    --      0.1855                 0.0000                 0.0000

                      7                      8                      9
                      A                      A                      A
 Frequencies --     69.4483                99.1181               126.8900
 Red. masses --      7.3718                 6.9627                 6.1661
 Frc consts  --      0.0209                 0.0403                 0.0585
 IR Inten    --      0.3662                 0.0000                 0.0000

                     10                     11                     12
                      A                      A                      A
 Frequencies --    138.3153               158.6337               170.6568
 Red. masses --      6.1833                 7.3492                 6.0944
 Frc consts  --      0.0697                 0.1090                 0.1046
 IR Inten    --      0.0055                 0.0000                 0.1071

                     13                     14                     15
                      A                      A                      A
 Frequencies --    191.0187               216.9259               237.5232
 Red. masses --      8.1544                 7.0111                 6.3060
 Frc consts  --      0.1753                 0.1944                 0.2096
 IR Inten    --      0.0000                 0.0000                 0.0000

                     16                     17                     18
                      A                      A                      A
 Frequencies --    257.7643               282.4132               311.1839
 Red. masses --      7.1554                 7.1901                 6.0496
 Frc consts  --      0.2801                 0.3379                 0.3452
 IR Inten    --      3.5658                 0.0000                 0.0158

                     19                     20                     21
                      A                      A                      A
 Frequencies --    324.3783               381.7572               383.4770
 Red. masses --      6.2796                 9.3143                 4.4931
 Frc consts  --      0.3893                 0.7998                 0.3893
 IR Inten    --      0.0244                 0.0000                 0.0000

                     22                     23                     24
                      A                      A                      A
 Frequencies --    385.0748               393.8999               400.4621
 Red. masses --      5.1233                 3.2716                 6.4406
 Frc consts  --      0.4476                 0.2991                 0.6086
 IR Inten    --      0.0000                 4.9968                 0.0000

                     25                     26                     27
                      A                      A                      A
 Frequencies --    409.0448               409.0604               457.2047
 Red. masses --      2.8138                 2.8124                 3.3390
 Frc consts  --      0.2774                 0.2773                 0.4112
 IR Inten    --      0.0000                 0.0000                 0.0000

                     28                     29                     30
                      A                      A                      A
 Frequencies --    459.8478               480.7771               485.6264
 Red. masses --      3.3917                 3.0540                 5.2015
 Frc consts  --      0.4226                 0.4159                 0.7227
 IR Inten    --     10.1188                 5.7052                 0.0000

                     31                     32                     33
                      A                      A                      A
 Frequencies --    494.7345               506.2636               544.5362
 Red. masses --      8.6201                 6.9898                 8.8876
 Frc consts  --      1.2431                 1.0555                 1.5527
 IR Inten    --      0.1302                 0.0000                23.1716

                     34                     35                     36
                      A                      A                      A
 Frequencies --    607.2007               632.6333               633.4885
 Red. masses --      6.3002                 6.4794                 6.4890
 Frc consts  --      1.3686                 1.5279                 1.5343
 IR Inten    --      0.0000                 0.3201                 0.0000

                     37                     38                     39
                      A                      A                      A
 Frequencies --    635.8825               676.1971               676.9857
 Red. masses --      7.2693                 7.0866                 5.2684
 Frc consts  --      1.7318                 1.9091                 1.4226
 IR Inten    --      0.0000                 0.0000                79.5177

                     40                     41                     42
                      A                      A                      A
 Frequencies --    677.1076               677.3168               689.7700
 Red. masses --      7.2106                 5.3596                 9.9882
 Frc consts  --      1.9478                 1.4487                 2.7999
 IR Inten    --     41.2088                 0.0003                 0.0000

                     43                     44                     45
                      A                      A                      A
 Frequencies --    710.3599               710.4570               718.0044
 Red. masses --      1.5814                 1.5811                 5.8386
 Frc consts  --      0.4702                 0.4702                 1.7734
 IR Inten    --      0.0002               122.1992                 0.0000

                     46                     47                     48
                      A                      A                      A
 Frequencies --    718.9776               722.9836               742.6147
 Red. masses --      7.4785                 4.7471                 3.9880
 Frc consts  --      2.2777                 1.4620                 1.2958
 IR Inten    --      0.5045                 0.0000                 0.0000

                     49                     50                     51
                      A                      A                      A
 Frequencies --    756.6442               771.9909               784.7354
 Red. masses --      6.1182                 6.1781                 2.2784
 Frc consts  --      2.0637                 2.1693                 0.8266
 IR Inten    --      0.0000                61.8474                16.8373

                     52                     53                     54
                      A                      A                      A
 Frequencies --    784.7930               803.9031               824.8478
 Red. masses --      2.2869                 7.8569                11.8764
 Frc consts  --      0.8299                 2.9916                 4.7608
 IR Inten    --      0.0016                 0.0000                 0.1326

                     55                     56                     57
                      A                      A                      A
 Frequencies --    826.1425               838.3776               840.5274
 Red. masses --     11.7034                 1.3655                 5.9841
 Frc consts  --      4.7062                 0.5655                 2.4909
 IR Inten    --      0.0000                15.8532                 1.9667

                     58                     59                     60
                      A                      A                      A
 Frequencies --    841.5548               854.3038               862.6160
 Red. masses --      1.3070                 1.3951                 3.9495
 Frc consts  --      0.5454                 0.5999                 1.7315
 IR Inten    --      0.0000                 0.0000                 0.0000

                     61                     62                     63
                      A                      A                      A
 Frequencies --    869.3508               869.3538               874.2129
 Red. masses --      1.2469                 1.2470                 1.4866
 Frc consts  --      0.5552                 0.5553                 0.6694
 IR Inten    --      0.0000                 0.0000                 0.0000

                     64                     65                     66
                      A                      A                      A
 Frequencies --    883.1292               911.5198               916.8225
 Red. masses --      1.4600                 1.5500                 2.4103
 Frc consts  --      0.6709                 0.7588                 1.1937
 IR Inten    --      0.0000                95.7139                86.5895

                     67                     68                     69
                      A                      A                      A
 Frequencies --    951.7375               951.7450              1000.2942
 Red. masses --      1.3850                 1.3850                 1.3896
 Frc consts  --      0.7391                 0.7392                 0.8192
 IR Inten    --      0.0191                 1.2146                 0.0000

                     70                     71                     72
                      A                      A                      A
 Frequencies --   1000.3068              1012.2267              1012.2341
 Red. masses --      1.3896                 1.3029                 1.3030
 Frc consts  --      0.8192                 0.7865                 0.7866
 IR Inten    --      0.0000                 0.0000                 0.0050

                     73                     74                     75
                      A                      A                      A
 Frequencies --   1014.1487              1014.1594              1043.1192
 Red. masses --      6.1965                 6.1997                 3.2868
 Frc consts  --      3.7549                 3.7569                 2.1071
 IR Inten    --      0.4915                 0.0000               159.1583

                     76                     77                     78
                      A                      A                      A
 Frequencies --   1043.6917              1087.6758              1088.6627
 Red. masses --      3.2115                 6.2009                 2.8453
 Frc consts  --      2.0611                 4.3222                 1.9869
 IR Inten    --      0.0000                38.2234               204.5412

                     79                     80                     81
                      A                      A                      A
 Frequencies --   1089.7234              1093.4895              1098.9165
 Red. masses --      2.8365                 2.3037                 1.9485
 Frc consts  --      1.9846                 1.6230                 1.3864
 IR Inten    --      0.0000                 0.0000                 9.8390

                     82                     83                     84
                      A                      A                      A
 Frequencies --   1107.8855              1165.1582              1175.8631
 Red. masses --      3.4843                 1.5294                 1.6704
 Frc consts  --      2.5198                 1.2233                 1.3608
 IR Inten    --      0.0000                77.4113                 0.0000

                     85                     86                     87
                      A                      A                      A
 Frequencies --   1190.2332              1192.6790              1192.7343
 Red. masses --      1.7913                 1.1406                 1.1334
 Frc consts  --      1.4952                 0.9559                 0.9500
 IR Inten    --      0.0000                 4.2500                 0.0002

                     88                     89                     90
                      A                      A                      A
 Frequencies --   1201.5085              1211.3787              1213.1814
 Red. masses --      2.6772                 1.2462                 1.1467
 Frc consts  --      2.2771                 1.0775                 0.9944
 IR Inten    --    113.2078               336.7347                 0.0000

                     91                     92                     93
                      A                      A                      A
 Frequencies --   1224.6002              1226.1570              1253.4951
 Red. masses --      3.4195                 6.2969                 1.9866
 Frc consts  --      3.0213                 5.5779                 1.8391
 IR Inten    --   1104.9266                 0.0004                52.1038

                     94                     95                     96
                      A                      A                      A
 Frequencies --   1300.6190              1301.8121              1306.0810
 Red. masses --      2.4826                 8.7974                 5.4437
 Frc consts  --      2.4743                 8.7842                 5.4712
 IR Inten    --      0.0000                 0.0000                 8.4739

                     97                     98                     99
                      A                      A                      A
 Frequencies --   1325.3080              1329.6420              1332.7367
 Red. masses --      2.5392                 4.8866                 1.9049
 Frc consts  --      2.6278                 5.0901                 1.9935
 IR Inten    --      0.0000                24.2883                 0.0000

                    100                    101                    102
                      A                      A                      A
 Frequencies --   1356.6226              1356.6598              1369.0773
 Red. masses --      1.5392                 1.5397                 6.3083
 Frc consts  --      1.6691                 1.6697                 6.9665
 IR Inten    --      6.9393                 0.0016               408.5858

                    103                    104                    105
                      A                      A                      A
 Frequencies --   1371.8874              1377.3431              1436.2869
 Red. masses --      5.6951                 5.1785                 1.9316
 Frc consts  --      6.3152                 5.7882                 2.3477
 IR Inten    --   2132.9343                 0.0002               121.0067

                    106                    107                    108
                      A                      A                      A
 Frequencies --   1462.6433              1467.0387              1467.0786
 Red. masses --      8.6502                 2.1418                 2.1253
 Frc consts  --     10.9032                 2.7160                 2.6952
 IR Inten    --      0.0001                35.5622                 0.0002

                    109                    110                    111
                      A                      A                      A
 Frequencies --   1473.2497              1474.1066              1490.9770
 Red. masses --      7.9464                 3.9203                 4.0544
 Frc consts  --     10.1619                 5.0192                 5.3103
 IR Inten    --      0.7538               423.3290                 0.0001

                    112                    113                    114
                      A                      A                      A
 Frequencies --   1530.1340              1530.4309              1609.7397
 Red. masses --      2.3996                 2.4193                 4.9673
 Frc consts  --      3.3101                 3.3387                 7.5836
 IR Inten    --     70.8598                 0.0001                 0.0000

                    115                    116                    117
                      A                      A                      A
 Frequencies --   1609.7893              1632.6974              1639.6840
 Red. masses --      4.9664                 7.0841                 6.3861
 Frc consts  --      7.5828                11.1262                10.1159
 IR Inten    --      0.2254                63.4524                 0.0000

                    118                    119                    120
                      A                      A                      A
 Frequencies --   1645.8448              1648.8597              1649.4722
 Red. masses --      5.7059                 6.5480                 7.2513
 Frc consts  --      9.1065                10.4887                11.6240
 IR Inten    --     70.6567                 0.0000                 0.0000

                    121                    122                    123
                      A                      A                      A
 Frequencies --   1685.5492              1699.7341              3155.2749
 Red. masses --      8.2772                 8.3249                 1.0899
 Frc consts  --     13.8552                14.1707                 6.3932
 IR Inten    --      0.0000                 1.3686                17.7885

                    124                    125                    126
                      A                      A                      A
 Frequencies --   3157.1689              3157.4665              3157.4712
 Red. masses --      1.0902                 1.0855                 1.0855
 Frc consts  --      6.4026                 6.3763                 6.3764
 IR Inten    --      0.0000                 0.7498                 0.0940

                    127                    128                    129
                      A                      A                      A
 Frequencies --   3165.3531              3165.3538              3172.9534
 Red. masses --      1.0875                 1.0875                 1.0915
 Frc consts  --      6.4200                 6.4200                 6.4743
 IR Inten    --      0.6723                 0.6083                11.9537

                    130                    131                    132
                      A                      A                      A
 Frequencies --   3172.9576              3181.1129              3181.1170
 Red. masses --      1.0915                 1.0946                 1.0946
 Frc consts  --      6.4743                 6.5265                 6.5265
 IR Inten    --      5.5744                 0.6985                46.9126

                    133                    134                    135
                      A                      A                      A
 Frequencies --   3188.2362              3188.2634              3193.4862
 Red. masses --      1.0983                 1.0983                 1.0925
 Frc consts  --      6.5779                 6.5780                 6.5645
 IR Inten    --     44.6243                 0.1290                 0.0010

                    136                    137                    138
                      A                      A                      A
 Frequencies --   3193.7246              3194.6385              3195.1924
 Red. masses --      1.0926                 1.0923                 1.0924
 Frc consts  --      6.5662                 6.5679                 6.5710
 IR Inten    --      7.1255                 9.8903                 0.0003

 - Thermochemistry -
 -------------------
 Temperature   298.150 Kelvin.  Pressure   1.00000 Atm.
 Atom     1 has atomic number  6 and mass  12.00000

 Molecular mass:   414.12347 amu.
 Principal axes and moments of inertia in atomic units:
                           1         2         3
     Eigenvalues --  1771.05314********************
           X            1.00000  -0.00000  -0.00000
           Y            0.00000   1.00000   0.00000
           Z            0.00000  -0.00000   1.00000
 This molecule is an asymmetric top.
 Rotational symmetry number  1.
 Warning -- assumption of classical behavior for rotation
           may cause significant error
 Rotational temperatures (Kelvin)      0.04891     0.00161     0.00156
 Rotational constants (GHZ):           1.01902     0.03353     0.03247
 Zero-point vibrational energy     944512.0 (Joules/Mol)
                                  225.74379 (Kcal/Mol)
 Warning -- explicit consideration of  34 degrees of freedom as
           vibrations may cause significant error
 Vibrational temperatures:     20.52    49.26    50.14    55.00    68.16
          (Kelvin)             89.79    99.92   142.61   182.57   199.00
                              228.24   245.54   274.83   312.11   341.74
                              370.87   406.33   447.72   466.71   549.26
                              551.74   554.04   566.73   576.18   588.52
                              588.55   657.82   661.62   691.73   698.71
                              711.81   728.40   783.47   873.63   910.22
                              911.45   914.89   972.90   974.03   974.21
                              974.51   992.43  1022.05  1022.19  1033.05
                             1034.45  1040.21  1068.46  1088.64  1110.72
                             1129.06  1129.14  1156.64  1186.77  1188.63
                             1206.24  1209.33  1210.81  1229.15  1241.11
                             1250.80  1250.81  1257.80  1270.63  1311.47
                             1319.10  1369.34  1369.35  1439.20  1439.22
                             1456.37  1456.38  1459.13  1459.15  1500.82
                             1501.64  1564.92  1566.34  1567.87  1573.29
                             1581.10  1594.00  1676.40  1691.80  1712.48
                             1716.00  1716.08  1728.70  1742.90  1745.50
                             1761.93  1764.17  1803.50  1871.30  1873.02
                             1879.16  1906.82  1913.06  1917.51  1951.88
                             1951.93  1969.80  1973.84  1981.69  2066.50
                             2104.42  2110.74  2110.80  2119.68  2120.91
                             2145.18  2201.52  2201.95  2316.06  2316.13
                             2349.09  2359.14  2368.00  2372.34  2373.22
                             2425.13  2445.54  4539.74  4542.46  4542.89
                             4542.90  4554.24  4554.24  4565.17  4565.18
                             4576.91  4576.92  4587.16  4587.20  4594.71
                             4595.06  4596.37  4597.17

 Zero-point correction=                           0.359746 (Hartree/Particle)
 Thermal correction to Energy=                    0.382939
 Thermal correction to Enthalpy=                  0.383884
 Thermal correction to Gibbs Free Energy=         0.304848
 Sum of electronic and zero-point Energies=          -1351.264068
 Sum of electronic and thermal Energies=             -1351.240874
 Sum of electronic and thermal Enthalpies=           -1351.239930
 Sum of electronic and thermal Free Energies=        -1351.318965

                     E (Thermal)             CV                S
                      KCal/Mol        Cal/Mol-Kelvin    Cal/Mol-Kelvin
 Total                  240.298             94.690            166.343
 Electronic               0.000              0.000              0.000
 Translational            0.889              2.981             43.954
 Rotational               0.889              2.981             36.914
 Vibrational            238.521             88.729             85.476
 Vibration     1          0.593              1.986              7.305
 Vibration     2          0.594              1.983              5.567
 Vibration     3          0.594              1.983              5.532
 Vibration     4          0.594              1.982              5.349
 Vibration     5          0.595              1.979              4.924
 Vibration     6          0.597              1.972              4.380
 Vibration     7          0.598              1.969              4.169
 Vibration     8          0.604              1.950              3.472
 Vibration     9          0.611              1.926              2.993
 Vibration    10          0.614              1.915              2.827
 Vibration    11          0.621              1.893              2.566
 Vibration    12          0.626              1.879              2.428
 Vibration    13          0.634              1.852              2.218
 Vibration    14          0.646              1.815              1.985
 Vibration    15          0.656              1.783              1.821
 Vibration    16          0.667              1.750              1.677
 Vibration    17          0.681              1.706              1.519
 Vibration    18          0.700              1.652              1.356
 Vibration    19          0.709              1.627              1.288
 Vibration    20          0.751              1.509              1.032
 Vibration    21          0.753              1.505              1.025
 Vibration    22          0.754              1.502              1.019
 Vibration    23          0.761              1.483              0.985
 Vibration    24          0.766              1.469              0.961
 Vibration    25          0.773              1.451              0.930
 Vibration    26          0.773              1.451              0.930
 Vibration    27          0.815              1.345              0.774
 Vibration    28          0.818              1.339              0.767
 Vibration    29          0.837              1.293              0.708
 Vibration    30          0.842              1.282              0.695
 Vibration    31          0.850              1.262              0.671
 Vibration    32          0.861              1.236              0.643
 Vibration    33          0.900              1.152              0.556
 Vibration    34          0.966              1.017              0.437

 Optimization completed.
    -- Stationary point found.
 Normal termination of Gaussian 16 at Fri Jul 31 02:44:32 2020.
