 Gaussian 16, Revision C.01,
 Gaussian 16:  ES64L-G16RevC.01  3-Jul-2019

 --------------------------------------------------------------------
 #P B3LYP/6-311++G(d,p) EmpiricalDispersion=GD3 freq(noraman) SCF=YQC
 --------------------------------------------------------------------

 --------------------------------------------------------
 Restart from 2_Phenyl_H_Cyanohydrine_Benzobisoxazole.log
 --------------------------------------------------------
 Symbolic Z-matrix:
 Charge =  0 Multiplicity = 1

                         Standard orientation:
 ---------------------------------------------------------------------
 Center     Atomic      Atomic             Coordinates (Angstroms)
 Number     Number       Type             X           Y           Z
 ---------------------------------------------------------------------
      1          6           0       -1.151548    0.757838   -0.000002
      2          6           0        0.052359    1.468386    0.000001
      3          6           0        1.169504    0.655441   -0.000000
      4          6           0        1.151548   -0.757838   -0.000002
      5          6           0       -0.052359   -1.468386   -0.000000
      6          6           0       -1.169504   -0.655441   -0.000001
      7          1           0        0.094995    2.548562    0.000009
      8          1           0       -0.094995   -2.548562    0.000007
      9          7           0        2.462256   -1.213709   -0.000011
     10          8           0        2.486159    1.040031   -0.000004
     11          6           0        3.195717   -0.143176   -0.000003
     12          6           0        5.298753    1.189086    0.000243
     13          6           0        6.688936    1.248172    0.000250
     14          1           0        4.712149    2.098860    0.000425
     15          6           0        7.441607    0.074263    0.000012
     16          1           0        7.185168    2.211842    0.000443
     17          6           0        6.798064   -1.165092   -0.000237
     18          1           0        8.524575    0.123683    0.000020
     19          6           0        5.410558   -1.233499   -0.000245
     20          1           0        7.380775   -2.079110   -0.000431
     21          1           0        4.899476   -2.188063   -0.000438
     22          6           0        4.650221   -0.053989   -0.000002
     23          7           0       -2.462256    1.213708   -0.000011
     24          8           0       -2.486159   -1.040031   -0.000005
     25          6           0       -3.195717    0.143176   -0.000003
     26          6           0       -5.298753   -1.189086    0.000243
     27          6           0       -6.688936   -1.248171    0.000249
     28          1           0       -4.712149   -2.098860    0.000423
     29          6           0       -7.441607   -0.074263    0.000011
     30          1           0       -7.185168   -2.211842    0.000441
     31          6           0       -6.798064    1.165092   -0.000237
     32          1           0       -8.524575   -0.123683    0.000020
     33          6           0       -5.410558    1.233499   -0.000245
     34          1           0       -7.380775    2.079110   -0.000430
     35          1           0       -4.899476    2.188063   -0.000437
     36          6           0       -4.650221    0.053989   -0.000002
 ---------------------------------------------------------------------

 SCF Done:  E(RB3LYP) =  -1029.61470922     a.u. after    7 cycles
 SCF Done:  E(RB3LYP) =  -1029.61471618     A.U. after    9 cycles

 The electronic state is 1-A.
 Alpha  occ. eigenvalues --  -19.20514 -19.20513 -14.32216 -14.32216 -10.28205
 Alpha  occ. eigenvalues --  -10.28204 -10.24784 -10.24783 -10.22174 -10.22172
 Alpha  occ. eigenvalues --  -10.20659 -10.20659 -10.19791 -10.19790 -10.19268
 Alpha  occ. eigenvalues --  -10.19268 -10.19143 -10.19143 -10.19068 -10.19068
 Alpha  occ. eigenvalues --  -10.18975 -10.18975 -10.18909 -10.18909  -1.14176
 Alpha  occ. eigenvalues --   -1.14081  -0.94330  -0.94220  -0.88587  -0.87860
 Alpha  occ. eigenvalues --   -0.86420  -0.80321  -0.78289  -0.77569  -0.76477
 Alpha  occ. eigenvalues --   -0.76350  -0.73747  -0.68614  -0.65095  -0.63929
 Alpha  occ. eigenvalues --   -0.62817  -0.62703  -0.61332  -0.59809  -0.58969
 Alpha  occ. eigenvalues --   -0.55893  -0.55730  -0.53761  -0.50837  -0.49699
 Alpha  occ. eigenvalues --   -0.49504  -0.48546  -0.48530  -0.47484  -0.47328
 Alpha  occ. eigenvalues --   -0.46924  -0.46235  -0.44565  -0.44129  -0.43916
 Alpha  occ. eigenvalues --   -0.43695  -0.43156  -0.41012  -0.39459  -0.38978
 Alpha  occ. eigenvalues --   -0.38052  -0.37219  -0.37075  -0.36347  -0.36159
 Alpha  occ. eigenvalues --   -0.36026  -0.35796  -0.33563  -0.30740  -0.30374
 Alpha  occ. eigenvalues --   -0.29395  -0.27224  -0.27210  -0.26669  -0.25241
 Alpha  occ. eigenvalues --   -0.22192
 Alpha virt. eigenvalues --   -0.08071  -0.05412  -0.02768  -0.02693  -0.01890
 Alpha virt. eigenvalues --   -0.00959  -0.00778   0.00404   0.00682   0.00874
 Alpha virt. eigenvalues --    0.01056   0.01621   0.02107   0.02955   0.03514

 Mulliken charges:
               1
     1  C    0.174131
     2  C   -0.738651
     3  C    0.401982
     4  C    0.174130
     5  C   -0.738651
     6  C    0.401982
     7  H    0.192130
     8  H    0.192130
     9  N    0.059167
    10  O   -0.080933
    11  C    0.121652
    12  C   -0.596158
    13  C   -0.168485
    14  H    0.174241
    15  C   -0.433358
    16  H    0.184040
    17  C   -0.138040
    18  H    0.153099
    19  C   -0.537715
    20  H    0.185328
    21  H    0.187790
    22  C    0.859782
    23  N    0.059167
    24  O   -0.080933
    25  C    0.121651
    26  C   -0.596157
    27  C   -0.168484
    28  H    0.174241
    29  C   -0.433359
    30  H    0.184040
    31  C   -0.138040
    32  H    0.153099
    33  C   -0.537715
    34  H    0.185328
    35  H    0.187790
    36  C    0.859782
 Sum of Mulliken charges =   0.00000

 Dipole moment (field-independent basis, Debye):
    X=              0.0000    Y=              0.0000    Z=              0.0000  Tot=              0.0000
 Quadrupole moment (field-independent basis, Debye-Ang):
   XX=           -100.0146   YY=           -129.5443   ZZ=           -144.1732
   XY=              5.1083   XZ=             -0.0000   YZ=              0.0000

  Exact polarizability:     574.355       5.327     232.806       0.000       0.000     122.116
 Approx polarizability:     726.883      20.129     443.144       0.000       0.000     196.996

                      1                      2                      3
                      A                      A                      A
 Frequencies --     25.0191                33.6744                50.3508
 Red. masses --      6.6021                 3.6570                 4.7363
 Frc consts  --      0.0024                 0.0024                 0.0071
 IR Inten    --      0.5731                 0.0072                 0.0000

                      4                      5                      6
                      A                      A                      A
 Frequencies --     60.7438                65.7090               113.7148
 Red. masses --      5.6071                 7.0244                 5.5753
 Frc consts  --      0.0122                 0.0179                 0.0425
 IR Inten    --      0.6052                 0.0000                 0.0000

                      7                      8                      9
                      A                      A                      A
 Frequencies --    137.1678               203.9820               205.6453
 Red. masses --      5.7229                 6.9457                 5.8595
 Frc consts  --      0.0634                 0.1703                 0.1460
 IR Inten    --      0.6086                 0.0000                 0.0000

                     10                     11                     12
                      A                      A                      A
 Frequencies --    205.8910               266.6420               292.7913
 Red. masses --     14.3544                 5.7832                 6.3871
 Frc consts  --      0.3585                 0.2423                 0.3226
 IR Inten    --      1.1950                 0.5951                 0.8210

                     13                     14                     15
                      A                      A                      A
 Frequencies --    337.7470               361.8733               366.4799
 Red. masses --      7.6314                 5.6774                 6.8742
 Frc consts  --      0.5129                 0.4380                 0.5440
 IR Inten    --      3.3383                 0.0000                 0.0000

                     16                     17                     18
                      A                      A                      A
 Frequencies --    383.4956               410.4167               410.5440
 Red. masses --      7.5696                 2.8981                 2.9068
 Frc consts  --      0.6559                 0.2876                 0.2887
 IR Inten    --      0.0000                 0.1285                 0.0000

                     19                     20                     21
                      A                      A                      A
 Frequencies --    417.5796               495.4366               501.0089
 Red. masses --      2.7862                 3.6751                 4.0415
 Frc consts  --      0.2863                 0.5315                 0.5977
 IR Inten    --      4.6594                 9.5145                 0.0000

                     22                     23                     24
                      A                      A                      A
 Frequencies --    519.8900               528.2786               546.8825
 Red. masses --     10.1272                 8.8206                 8.3810
 Frc consts  --      1.6127                 1.4504                 1.4769
 IR Inten    --      0.0000                 3.6911                 0.0000

                     25                     26                     27
                      A                      A                      A
 Frequencies --    631.2633               631.6964               694.7193
 Red. masses --      6.4437                 6.4762                 6.4036
 Frc consts  --      1.5129                 1.5226                 1.8209
 IR Inten    --      0.0000                 0.3517                11.6207

                     28                     29                     30
                      A                      A                      A
 Frequencies --    697.8353               698.4860               708.3601
 Red. masses --      2.5755                 2.3241                 2.8973
 Frc consts  --      0.7390                 0.6681                 0.8566
 IR Inten    --     34.0767                 0.0000                86.4971

                     31                     32                     33
                      A                      A                      A
 Frequencies --    709.1275               712.9084               720.3996
 Red. masses --      6.6979                 2.8869                 5.0246
 Frc consts  --      1.9844                 0.8645                 1.5364
 IR Inten    --      0.0000                 0.0000                 0.0000

                     34                     35                     36
                      A                      A                      A
 Frequencies --    732.8702               747.4971               788.1856
 Red. masses --      6.9898                 4.7642                 2.2733
 Frc consts  --      2.2119                 1.5684                 0.8321
 IR Inten    --     18.0871                 0.0000                43.8867

                     37                     38                     39
                      A                      A                      A
 Frequencies --    788.3772               805.3441               824.1979
 Red. masses --      2.3483                 7.3684                10.0785
 Frc consts  --      0.8599                 2.8157                 4.0337
 IR Inten    --      0.0001                 0.0000                10.2473

                     40                     41                     42
                      A                      A                      A
 Frequencies --    848.9069               859.1123               859.1681
 Red. masses --      1.3593                 1.2492                 1.2487
 Frc consts  --      0.5772                 0.5432                 0.5431
 IR Inten    --      0.0000                 0.2272                 0.0000

                     43                     44                     45
                      A                      A                      A
 Frequencies --    867.3313               880.4821               931.7853
 Red. masses --      1.4997                 2.6552                12.2413
 Frc consts  --      0.6647                 1.2128                 6.2619
 IR Inten    --     49.7569                54.7993                44.3619

                     46                     47                     48
                      A                      A                      A
 Frequencies --    943.1198               944.9521               945.2555
 Red. masses --     12.4229                 1.4065                 1.4085
 Frc consts  --      6.5104                 0.7399                 0.7415
 IR Inten    --      0.0000                 0.0000                 5.1163

                     49                     50                     51
                      A                      A                      A
 Frequencies --    992.9353               993.0348              1004.3355
 Red. masses --      1.3636                 1.3636                 1.2880
 Frc consts  --      0.7921                 0.7922                 0.7655
 IR Inten    --      0.0000                 0.0104                 0.1255

                     52                     53                     54
                      A                      A                      A
 Frequencies --   1004.5609              1014.6999              1014.7504
 Red. masses --      1.2888                 6.2006                 6.2536
 Frc consts  --      0.7663                 3.7615                 3.7940
 IR Inten    --      0.0000                 0.0652                 0.0000

                     55                     56                     57
                      A                      A                      A
 Frequencies --   1040.4676              1043.2308              1069.1783
 Red. masses --      3.8423                 3.3180                 2.5505
 Frc consts  --      2.4507                 2.1276                 1.7178
 IR Inten    --     74.2079                 0.0000                41.3951

                     58                     59                     60
                      A                      A                      A
 Frequencies --   1075.3863              1109.9880              1111.5050
 Red. masses --      3.0201                 1.7269                 1.6421
 Frc consts  --      2.0578                 1.2536                 1.1953
 IR Inten    --      0.0000                 0.0000                 6.6121

                     61                     62                     63
                      A                      A                      A
 Frequencies --   1134.7630              1154.7071              1192.8990
 Red. masses --      2.5749                 5.4927                 1.1278
 Frc consts  --      1.9535                 4.3150                 0.9456
 IR Inten    --    128.9506                 0.0000                 0.2024

                     64                     65                     66
                      A                      A                      A
 Frequencies --   1193.0988              1211.3147              1211.6091
 Red. masses --      1.1257                 1.1677                 1.1422
 Frc consts  --      0.9441                 1.0095                 0.9879
 IR Inten    --      0.0000                 0.0000                13.8039

                     67                     68                     69
                      A                      A                      A
 Frequencies --   1215.9444              1239.4954              1288.1487
 Red. masses --      1.4102                 7.1146                 6.0751
 Frc consts  --      1.2285                 6.4400                 5.9393
 IR Inten    --      0.0000                 7.2581                 0.0000

                     70                     71                     72
                      A                      A                      A
 Frequencies --   1308.1261              1329.5501              1342.3801
 Red. masses --      4.4564                 4.6324                 5.2285
 Frc consts  --      4.4930                 4.8246                 5.5511
 IR Inten    --     37.5735                 0.0000                 5.6461

                     73                     74                     75
                      A                      A                      A
 Frequencies --   1345.2456              1358.6754              1359.5438
 Red. masses --      6.5531                 1.5597                 1.5440
 Frc consts  --      6.9871                 1.6964                 1.6814
 IR Inten    --      0.0000                 4.5721                 0.0000

                     76                     77                     78
                      A                      A                      A
 Frequencies --   1384.3267              1453.5532              1477.8193
 Red. masses --      5.4034                 3.7700                 2.2652
 Frc consts  --      6.1009                 4.6930                 2.9148
 IR Inten    --     93.0131                75.4674                 0.0000

                     79                     80                     81
                      A                      A                      A
 Frequencies --   1480.5302              1518.9840              1519.7542
 Red. masses --      2.3917                 2.3043                 3.1479
 Frc consts  --      3.0888                 3.1325                 4.2837
 IR Inten    --     25.4586                 0.0000                33.3012

                     82                     83                     84
                      A                      A                      A
 Frequencies --   1521.1744              1579.0413              1600.9045
 Red. masses --      4.4091                 8.2286                 7.0964
 Frc consts  --      6.0111                12.0882                10.7157
 IR Inten    --     54.6217                 0.0000               149.0483

                     85                     86                     87
                      A                      A                      A
 Frequencies --   1617.2393              1626.3548              1634.1599
 Red. masses --      5.8460                 6.7237                 8.0983
 Frc consts  --      9.0086                10.4783                12.7419
 IR Inten    --      0.0000                54.9659                 0.0000

                     88                     89                     90
                      A                      A                      A
 Frequencies --   1645.6687              1645.8470              1667.8955
 Red. masses --      6.0762                 5.5559                 8.5468
 Frc consts  --      9.6954                 8.8672                14.0086
 IR Inten    --      0.0000                 7.4886                 0.0000

                     91                     92                     93
                      A                      A                      A
 Frequencies --   3164.2426              3164.2584              3175.3783
 Red. masses --      1.0861                 1.0861                 1.0896
 Frc consts  --      6.4070                 6.4071                 6.4732
 IR Inten    --      1.3617                 0.0061                 2.2884

                     94                     95                     96
                      A                      A                      A
 Frequencies --   3175.3842              3186.4911              3186.5285
 Red. masses --      1.0896                 1.0941                 1.0941
 Frc consts  --      6.4733                 6.5453                 6.5453
 IR Inten    --     18.3455                43.7702                 0.0143

                     97                     98                     99
                      A                      A                      A
 Frequencies --   3199.9045              3199.9055              3201.8760
 Red. masses --      1.0935                 1.0935                 1.0954
 Frc consts  --      6.5969                 6.5969                 6.6167
 IR Inten    --      9.8607                 0.0431                11.7175

                    100                    101                    102
                      A                      A                      A
 Frequencies --   3201.8930              3217.2564              3218.2094
 Red. masses --      1.0955                 1.0941                 1.0938
 Frc consts  --      6.6169                 6.6721                 6.6747
 IR Inten    --      0.0081                 0.1382                 0.0000

 - Thermochemistry -
 -------------------
 Temperature   298.150 Kelvin.  Pressure   1.00000 Atm.
 Atom     1 has atomic number  6 and mass  12.00000

 Molecular mass:   312.08988 amu.
 Principal axes and moments of inertia in atomic units:
                           1         2         3
     Eigenvalues --  1225.01582********************
           X            1.00000   0.00033  -0.00000
           Y           -0.00033   1.00000  -0.00000
           Z            0.00000   0.00000   1.00000
 This molecule is an asymmetric top.
 Rotational symmetry number  1.
 Warning -- assumption of classical behavior for rotation
           may cause significant error
 Rotational temperatures (Kelvin)      0.07070     0.00371     0.00352
 Rotational constants (GHZ):           1.47324     0.07730     0.07344
 Zero-point vibrational energy     711398.3 (Joules/Mol)
                                  170.02826 (Kcal/Mol)
 Warning -- explicit consideration of  24 degrees of freedom as
           vibrations may cause significant error
 Vibrational temperatures:     36.00    48.45    72.44    87.40    94.54
          (Kelvin)            163.61   197.35   293.48   295.88   296.23
                              383.64   421.26   485.94   520.66   527.28
                              551.76   590.50   590.68   600.80   712.82
                              720.84   748.01   760.08   786.84   908.25
                              908.87   999.55  1004.03  1004.97  1019.17
                             1020.28  1025.72  1036.49  1054.44  1075.48
                             1134.02  1134.30  1158.71  1185.84  1221.39
                             1236.07  1236.15  1247.90  1266.82  1340.63
                             1356.94  1359.58  1360.01  1428.61  1428.76
                             1445.01  1445.34  1459.93  1460.00  1497.00
                             1500.98  1538.31  1547.24  1597.03  1599.21
                             1632.67  1661.37  1716.32  1716.60  1742.81
                             1743.24  1749.47  1783.36  1853.36  1882.10
                             1912.93  1931.39  1935.51  1954.83  1956.08
                             1991.74  2091.34  2126.25  2130.15  2185.48
                             2186.59  2188.63  2271.89  2303.34  2326.85
                             2339.96  2351.19  2367.75  2368.01  2399.73
                             4552.64  4552.66  4568.66  4568.67  4584.65
                             4584.70  4603.95  4603.95  4606.79  4606.81
                             4628.91  4630.29

 Zero-point correction=                           0.270957 (Hartree/Particle)
 Thermal correction to Energy=                    0.287976
 Thermal correction to Enthalpy=                  0.288921
 Thermal correction to Gibbs Free Energy=         0.224237
 Sum of electronic and zero-point Energies=          -1029.343759
 Sum of electronic and thermal Energies=             -1029.326740
 Sum of electronic and thermal Enthalpies=           -1029.325796
 Sum of electronic and thermal Free Energies=        -1029.390479

                     E (Thermal)             CV                S
                      KCal/Mol        Cal/Mol-Kelvin    Cal/Mol-Kelvin
 Total                  180.708             69.122            136.137
 Electronic               0.000              0.000              0.000
 Translational            0.889              2.981             43.111
 Rotational               0.889              2.981             34.907
 Vibrational            178.930             63.160             58.120
 Vibration     1          0.593              1.985              6.190
 Vibration     2          0.594              1.983              5.600
 Vibration     3          0.595              1.977              4.804
 Vibration     4          0.597              1.973              4.433
 Vibration     5          0.597              1.971              4.278
 Vibration     6          0.607              1.938              3.204
 Vibration     7          0.614              1.916              2.843
 Vibration     8          0.640              1.834              2.097
 Vibration     9          0.640              1.832              2.082
 Vibration    10          0.640              1.831              2.080
 Vibration    11          0.672              1.734              1.618
 Vibration    12          0.688              1.687              1.458
 Vibration    13          0.718              1.600              1.223
 Vibration    14          0.736              1.551              1.114
 Vibration    15          0.739              1.541              1.094
 Vibration    16          0.753              1.505              1.025
 Vibration    17          0.775              1.448              0.925
 Vibration    18          0.775              1.447              0.925
 Vibration    19          0.781              1.432              0.900
 Vibration    20          0.851              1.260              0.670
 Vibration    21          0.856              1.248              0.656
 Vibration    22          0.875              1.206              0.610
 Vibration    23          0.883              1.187              0.591
 Vibration    24          0.902              1.147              0.551

 Optimization completed.
    -- Stationary point found.
 Normal termination of Gaussian 16 at Thu Jul 30 22:06:43 2020.
