 Gaussian 16, Revision C.01,
 Gaussian 16:  ES64L-G16RevC.01  3-Jul-2019

 --------------------------------------------------------------------
 #P B3LYP/6-311++G(d,p) EmpiricalDispersion=GD3 freq(noraman) SCF=YQC
 --------------------------------------------------------------------

 --------------------------------------------------
 Restart from 2_Phenyl_BoronicAcid_Borosilicate.log
 --------------------------------------------------
 Symbolic Z-matrix:
 Charge =  0 Multiplicity = 1

                         Standard orientation:
 ---------------------------------------------------------------------
 Center     Atomic      Atomic             Coordinates (Angstroms)
 Number     Number       Type             X           Y           Z
 ---------------------------------------------------------------------
      1          6           0       -0.442181    1.344401   -0.000684
      2          6           0        0.442181   -1.344401   -0.000684
      3          6           0        0.928521    1.037099   -0.000645
      4          6           0       -0.928521   -1.037099   -0.000645
      5          6           0        1.362835   -0.283436   -0.000741
      6          6           0       -1.362835    0.283436   -0.000741
      7          1           0       -2.424044    0.506400   -0.000832
      8          1           0        2.424044   -0.506400   -0.000832
      9          1           0       -1.650189   -1.846462   -0.000570
     10          1           0        1.650189    1.846462   -0.000570
     11          5           0       -0.928521    2.822694   -0.000618
     12          8           0       -2.278423    3.090027   -0.001461
     13          8           0       -0.001202    3.839526    0.000284
     14         14           0       -3.285584    4.395575   -0.002601
     15         14           0        0.033470    5.488091    0.002883
     16          8           0       -3.010253    5.308891    1.348462
     17          8           0       -3.005697    5.310057   -1.351912
     18          1           0       -4.669547    3.941844   -0.005117
     19          8           0       -0.731053    6.060486   -1.347398
     20          8           0       -0.734605    6.056285    1.352894
     21          1           0        1.416330    5.945192    0.005366
     22          5           0       -1.975817    5.993985    1.924254
     23          1           0       -2.161960    6.554659    2.955671
     24          5           0       -1.970117    5.997111   -1.923289
     25          1           0       -2.153338    6.558690   -2.954736
     26          5           0        0.928521   -2.822694   -0.000618
     27          8           0        2.278423   -3.090027   -0.001461
     28          8           0        0.001202   -3.839526    0.000284
     29         14           0        3.285584   -4.395575   -0.002601
     30         14           0       -0.033470   -5.488091    0.002883
     31          8           0        3.010253   -5.308891    1.348462
     32          8           0        3.005697   -5.310057   -1.351912
     33          1           0        4.669547   -3.941844   -0.005117
     34          8           0        0.731053   -6.060486   -1.347398
     35          8           0        0.734605   -6.056285    1.352894
     36          1           0       -1.416330   -5.945192    0.005366
     37          5           0        1.975817   -5.993985    1.924254
     38          1           0        2.161960   -6.554659    2.955671
     39          5           0        1.970117   -5.997111   -1.923289
     40          1           0        2.153338   -6.558690   -2.954736
 ---------------------------------------------------------------------

 SCF Done:  E(RB3LYP) =  -2447.35978677     a.u. after    6 cycles
 SCF Done:  E(RB3LYP) =  -2447.35979427     A.U. after    9 cycles

 The electronic state is 1-A.
 Alpha  occ. eigenvalues --  -66.19196 -66.19196 -66.19195 -66.19195 -19.15259
 Alpha  occ. eigenvalues --  -19.15259 -19.15259 -19.15259 -19.15259 -19.15258
 Alpha  occ. eigenvalues --  -19.15258 -19.15258 -19.15091 -19.15091 -19.15090
 Alpha  occ. eigenvalues --  -19.15090 -10.18547 -10.18546 -10.18492 -10.18489
 Alpha  occ. eigenvalues --  -10.17366 -10.17365  -6.82071  -6.82071  -6.82070
 Alpha  occ. eigenvalues --   -6.82070  -6.82069  -6.82069  -5.35698  -5.35698
 Alpha  occ. eigenvalues --   -5.35697  -5.35697  -3.71685  -3.71685  -3.71684
 Alpha  occ. eigenvalues --   -3.71684  -3.71683  -3.71683  -3.71683  -3.71683
 Alpha  occ. eigenvalues --   -3.71342  -3.71342  -3.71342  -3.71342  -1.07475
 Alpha  occ. eigenvalues --   -1.07475  -1.04477  -1.04477  -1.04430  -1.04429
 Alpha  occ. eigenvalues --   -1.04039  -1.04038  -1.01127  -1.01127  -1.01064
 Alpha  occ. eigenvalues --   -1.01063  -0.86356  -0.75846  -0.75689  -0.66088
 Alpha  occ. eigenvalues --   -0.65364  -0.63071  -0.62417  -0.61964  -0.60833
 Alpha  occ. eigenvalues --   -0.58798  -0.58798  -0.58483  -0.57576  -0.54704
 Alpha  occ. eigenvalues --   -0.54396  -0.54396  -0.54058  -0.52789  -0.50140
 Alpha  occ. eigenvalues --   -0.49358  -0.46298  -0.46280  -0.46212  -0.45973
 Alpha  occ. eigenvalues --   -0.45746  -0.45340  -0.44535  -0.44458  -0.44151
 Alpha  occ. eigenvalues --   -0.43560  -0.43532  -0.42851  -0.42237  -0.41113
 Alpha  occ. eigenvalues --   -0.40610  -0.40580  -0.40342  -0.39219  -0.39217
 Alpha  occ. eigenvalues --   -0.39209  -0.39184  -0.38195  -0.37460  -0.36495
 Alpha  occ. eigenvalues --   -0.36233  -0.36076  -0.35201  -0.35030  -0.35030
 Alpha  occ. eigenvalues --   -0.34831  -0.34820  -0.34639  -0.34326  -0.34324
 Alpha  occ. eigenvalues --   -0.34304  -0.34232  -0.32770  -0.27190  -0.26654
 Alpha virt. eigenvalues --   -0.07530  -0.02504  -0.02485  -0.02227  -0.01466
 Alpha virt. eigenvalues --   -0.01183  -0.00351  -0.00129   0.00384   0.00470
 Alpha virt. eigenvalues --    0.00836   0.00930   0.01081   0.01437   0.02025

 Mulliken charges:
               1
     1  C   -0.782624
     2  C   -0.782624
     3  C    0.056597
     4  C    0.056597
     5  C    0.057413
     6  C    0.057413
     7  H    0.191065
     8  H    0.191065
     9  H    0.191025
    10  H    0.191025
    11  B    0.830896
    12  O   -0.396819
    13  O   -0.396928
    14  Si   0.325760
    15  Si   0.325618
    16  O   -0.283649
    17  O   -0.283804
    18  H   -0.210313
    19  O   -0.283697
    20  O   -0.283861
    21  H   -0.210249
    22  B    0.539894
    23  H    0.036917
    24  B    0.539823
    25  H    0.036935
    26  B    0.830896
    27  O   -0.396819
    28  O   -0.396928
    29  Si   0.325760
    30  Si   0.325618
    31  O   -0.283649
    32  O   -0.283804
    33  H   -0.210313
    34  O   -0.283697
    35  O   -0.283861
    36  H   -0.210249
    37  B    0.539894
    38  H    0.036917
    39  B    0.539823
    40  H    0.036935
 Sum of Mulliken charges =  -0.00000

 Dipole moment (field-independent basis, Debye):
    X=              0.0000    Y=             -0.0000    Z=             -0.0004  Tot=              0.0004
 Quadrupole moment (field-independent basis, Debye-Ang):
   XX=           -182.3851   YY=           -194.7148   ZZ=           -194.5818
   XY=              4.5555   XZ=             -0.0000   YZ=              0.0000

  Exact polarizability:     253.546     -24.465     319.871       0.000       0.000     194.517
 Approx polarizability:     373.223      -1.889     378.371       0.000       0.000     269.753

                      1                      2                      3
                      A                      A                      B
 Frequencies --      8.9461                15.2815                29.6837
 Red. masses --      7.9878                 7.7132                 8.3243
 Frc consts  --      0.0004                 0.0011                 0.0043
 IR Inten    --      0.0000                 0.0063                 0.0237

                      4                      5                      6
                      B                      B                      A
 Frequencies --     33.4731                52.2114                71.7186
 Red. masses --      8.0646                 4.5788                 8.2007
 Frc consts  --      0.0053                 0.0074                 0.0249
 IR Inten    --      0.0000                 0.0000                 0.0000

                      7                      8                      9
                      A                      A                      B
 Frequencies --     79.0212                81.6092                85.4354
 Red. masses --      7.4895                15.4651                11.5260
 Frc consts  --      0.0276                 0.0607                 0.0496
 IR Inten    --      0.2121                 0.0000                 0.0000

                     10                     11                     12
                      A                      B                      A
 Frequencies --     97.7242               101.9916               105.9594
 Red. masses --     14.9048                11.2889                 7.1003
 Frc consts  --      0.0839                 0.0692                 0.0470
 IR Inten    --      0.0000                 0.0000                 0.0000

                     13                     14                     15
                      B                      A                      B
 Frequencies --    114.0122               125.9787               154.2075
 Red. masses --     15.8037                14.4812                 2.9014
 Frc consts  --      0.1210                 0.1354                 0.0407
 IR Inten    --      0.1981                 0.0000                 3.5993

                     16                     17                     18
                      A                      B                      A
 Frequencies --    177.8774               178.8904               199.9969
 Red. masses --      3.2750                 3.8839                 2.9791
 Frc consts  --      0.0611                 0.0732                 0.0702
 IR Inten    --      0.0000                 0.0000                 1.0972

                     19                     20                     21
                      B                      B                      B
 Frequencies --    227.9110               271.0203               283.6986
 Red. masses --      4.2268                 9.9496                 7.4459
 Frc consts  --      0.1294                 0.4306                 0.3531
 IR Inten    --      0.0000                 0.0728                12.2094

                     22                     23                     24
                      A                      A                      B
 Frequencies --    322.9913               323.9515               324.6969
 Red. masses --     11.4259                12.9444                13.2577
 Frc consts  --      0.7023                 0.8004                 0.8235
 IR Inten    --      0.0018                 0.0037                 0.0005

                     25                     26                     27
                      A                      B                      A
 Frequencies --    330.7365               344.2019               345.3860
 Red. masses --      6.2842                10.8423                 9.6292
 Frc consts  --      0.4050                 0.7568                 0.6768
 IR Inten    --     37.4045                 1.5376                 0.0000

                     28                     29                     30
                      B                      B                      A
 Frequencies --    348.5324               355.1045               383.7750
 Red. masses --      6.8974                 5.9835                 5.7447
 Frc consts  --      0.4937                 0.4446                 0.4985
 IR Inten    --      0.0003                45.7239                 0.0000

                     31                     32                     33
                      A                      A                      B
 Frequencies --    389.5997               418.8368               432.2828
 Red. masses --      5.1904                 2.8203                 7.9399
 Frc consts  --      0.4642                 0.2915                 0.8742
 IR Inten    --      0.0001                 0.0001                47.5469

                     34                     35                     36
                      A                      B                      A
 Frequencies --    446.8259               446.8351               463.5544
 Red. masses --     13.5089                14.2544                 4.4282
 Frc consts  --      1.5891                 1.6768                 0.5606
 IR Inten    --      0.0017               287.8924                 4.0345

                     37                     38                     39
                      B                      A                      A
 Frequencies --    569.4601               569.6870               573.3296
 Red. masses --      8.2675                 8.2627                 8.1054
 Frc consts  --      1.5796                 1.5800                 1.5698
 IR Inten    --      0.0008               103.4467                 0.0001

                     40                     41                     42
                      B                      A                      B
 Frequencies --    576.9031               595.2219               600.2825
 Red. masses --      7.7575                14.9632                13.4029
 Frc consts  --      1.5212                 3.1234                 2.8455
 IR Inten    --    194.6606                 0.0000                32.4513

                     43                     44                     45
                      A                      B                      A
 Frequencies --    648.4205               659.2832               687.0242
 Red. masses --      7.0397                 7.1101                 6.9127
 Frc consts  --      1.7439                 1.8208                 1.9224
 IR Inten    --      0.0000                 0.0001                 0.0000

                     46                     47                     48
                      A                      B                      A
 Frequencies --    692.3991               710.6212               711.8225
 Red. masses --      3.6481                 5.4671                 5.3729
 Frc consts  --      1.0304                 1.6266                 1.6040
 IR Inten    --     82.0818                51.4748                 0.0004

                     49                     50                     51
                      B                      A                      B
 Frequencies --    740.1775               741.5900               760.6644
 Red. masses --      6.0121                 5.4877                 3.4746
 Frc consts  --      1.9407                 1.7781                 1.1845
 IR Inten    --      1.7842                 0.0000                 0.0001

                     52                     53                     54
                      A                      A                      B
 Frequencies --    761.9950               774.1119               774.1362
 Red. masses --      3.3548                 4.5349                 4.5313
 Frc consts  --      1.1477                 1.6011                 1.5999
 IR Inten    --     17.1626                 0.0000                 0.0001

                     55                     56                     57
                      B                      B                      A
 Frequencies --    784.3332               829.2983               829.3267
 Red. masses --      4.8138                 1.1431                 1.1429
 Frc consts  --      1.7448                 0.4632                 0.4631
 IR Inten    --      0.0000                 0.0001                 0.0000

                     58                     59                     60
                      B                      A                      B
 Frequencies --    830.3663               830.6477               855.7019
 Red. masses --      1.1279                 1.1414                11.8854
 Frc consts  --      0.4582                 0.4640                 5.1275
 IR Inten    --      0.0091                 0.0000                 9.8670

                     61                     62                     63
                      B                      A                      A
 Frequencies --    857.0269               863.8743               866.7976
 Red. masses --      1.5942                11.1804                 1.6501
 Frc consts  --      0.6899                 4.9160                 0.7304
 IR Inten    --    546.7123                 0.0001                 2.4173

                     64                     65                     66
                      A                      B                      B
 Frequencies --    874.2529               882.1731               884.6619
 Red. masses --      1.4575                 1.2450                 1.4122
 Frc consts  --      0.6563                 0.5708                 0.6512
 IR Inten    --      0.0000                 0.0000                 0.0019

                     67                     68                     69
                      A                      B                      A
 Frequencies --    885.6390               901.1326               911.4855
 Red. masses --      1.4112                 3.2576                 3.9090
 Frc consts  --      0.6521                 1.5586                 1.9134
 IR Inten    --    674.6988               649.6734                 0.0000

                     70                     71                     72
                      B                      A                      B
 Frequencies --    916.3617               916.5323               923.2716
 Red. masses --      1.6559                 1.6574                 1.7089
 Frc consts  --      0.8193                 0.8203                 0.8583
 IR Inten    --      0.0006                55.9750               218.8003

                     73                     74                     75
                      A                      B                      A
 Frequencies --    923.9605              1000.3598              1012.4837
 Red. masses --      1.8013                 1.3130                 1.3916
 Frc consts  --      0.9060                 0.7742                 0.8405
 IR Inten    --      0.0000                 0.0000                 0.0000

                     76                     77                     78
                      B                      B                      A
 Frequencies --   1041.8250              1134.4941              1145.1918
 Red. masses --      3.0574                 1.5181                 1.2252
 Frc consts  --      1.9552                 1.1512                 0.9467
 IR Inten    --     87.8582                11.7382                 0.0000

                     79                     80                     81
                      B                      A                      B
 Frequencies --   1145.2091              1146.4472              1147.7553
 Red. masses --      1.2242                10.7681                 1.2764
 Frc consts  --      0.9459                 8.3386                 0.9907
 IR Inten    --      0.9323                 0.0000                 0.0002

                     82                     83                     84
                      A                      B                      A
 Frequencies --   1147.7556              1156.3952              1218.9256
 Red. masses --      1.2763                 4.0837                 1.1574
 Frc consts  --      0.9906                 3.2175                 1.0132
 IR Inten    --      0.0001               956.8911                 0.0000

                     85                     86                     87
                      B                      B                      A
 Frequencies --   1231.6505              1231.9143              1232.3388
 Red. masses --     10.2793                 9.7602                10.3055
 Frc consts  --      9.1873                 8.7271                 9.2210
 IR Inten    --      0.0890               951.8679              1268.5124

                     88                     89                     90
                      A                      B                      A
 Frequencies --   1235.8744              1258.8512              1260.7524
 Red. masses --      8.9870                 6.6275                 7.8954
 Frc consts  --      8.0875                 6.1880                 7.3941
 IR Inten    --      0.0003                 0.2372                 0.0005

                     91                     92                     93
                      A                      B                      B
 Frequencies --   1271.1047              1271.1462              1311.2214
 Red. masses --      6.6523                 6.6519                 4.4720
 Frc consts  --      6.3326                 6.3327                 4.5301
 IR Inten    --      0.0011                 0.0039              1985.5561

                     94                     95                     96
                      B                      A                      A
 Frequencies --   1318.1835              1332.9199              1344.7587
 Red. masses --     11.2559                 1.3069                11.2835
 Frc consts  --     11.5235                 1.3680                12.0221
 IR Inten    --     41.9079                 0.0000                 0.0000

                     97                     98                     99
                      B                      A                      B
 Frequencies --   1412.3670              1415.6359              1426.2569
 Red. masses --      3.3115                10.6302                 4.9236
 Frc consts  --      3.8919                12.5515                 5.9010
 IR Inten    --   1050.1594                 0.0070              2085.7325

                    100                    101                    102
                      B                      A                      A
 Frequencies --   1537.3266              1577.9480              1650.7536
 Red. masses --      2.4038                 5.9963                 5.5496
 Frc consts  --      3.3472                 8.7967                 8.9100
 IR Inten    --     91.3093                 0.0000                 0.0000

                    103                    104                    105
                      A                      B                      B
 Frequencies --   2388.0069              2388.1693              2389.3068
 Red. masses --      1.0421                 1.0422                 1.0427
 Frc consts  --      3.5014                 3.5020                 3.5072
 IR Inten    --      0.0009               305.7206                 3.0266

                    106                    107                    108
                      A                      B                      A
 Frequencies --   2389.5068              2656.4092              2656.5131
 Red. masses --      1.0427                 1.0944                 1.0944
 Frc consts  --      3.5079                 4.5500                 4.5505
 IR Inten    --      0.0000                 0.0013               534.9923

                    109                    110                    111
                      B                      A                      B
 Frequencies --   2659.3614              2659.7493              3165.5497
 Red. masses --      1.0958                 1.0959                 1.0877
 Frc consts  --      4.5659                 4.5678                 6.4215
 IR Inten    --    252.4034                 0.0001                 4.5197

                    112                    113                    114
                      A                      B                      A
 Frequencies --   3165.9485              3181.6184              3184.0811
 Red. masses --      1.0866                 1.0936                 1.0951
 Frc consts  --      6.4168                 6.5223                 6.5415
 IR Inten    --      0.0000                24.3179                 0.0000

 - Thermochemistry -
 -------------------
 Temperature   298.150 Kelvin.  Pressure   1.00000 Atm.
 Atom     1 has atomic number  6 and mass  12.00000

 Molecular mass:   453.99642 amu.
 Principal axes and moments of inertia in atomic units:
                           1         2         3
     Eigenvalues --  4207.54546********************
           X           -0.31256   0.94990   0.00000
           Y            0.94990   0.31256   0.00000
           Z            0.00000   0.00000   1.00000
 This molecule is an asymmetric top.
 Rotational symmetry number  2.
 Warning -- assumption of classical behavior for rotation
           may cause significant error
 Rotational temperatures (Kelvin)      0.02059     0.00216     0.00210
 Rotational constants (GHZ):           0.42893     0.04504     0.04381
 Zero-point vibrational energy     636353.5 (Joules/Mol)
                                  152.09214 (Kcal/Mol)
 Warning -- explicit consideration of  42 degrees of freedom as
           vibrations may cause significant error
 Vibrational temperatures:     12.87    21.99    42.71    48.16    75.12
          (Kelvin)            103.19   113.69   117.42   122.92   140.60
                              146.74   152.45   164.04   181.26   221.87
                              255.93   257.38   287.75   327.91   389.94
                              408.18   464.71   466.09   467.17   475.86
                              495.23   496.93   501.46   510.92   552.17
                              560.55   602.61   621.96   642.88   642.90
                              666.95   819.33   819.65   824.89   830.03
                              856.39   863.67   932.93   948.56   988.47
                              996.21  1022.43  1024.15  1064.95  1066.98
                             1094.43  1096.34  1113.77  1113.81  1128.48
                             1193.18  1193.22  1194.71  1195.12  1231.16
                             1233.07  1242.92  1247.13  1257.85  1269.25
                             1272.83  1274.24  1296.53  1311.42  1318.44
                             1318.69  1328.38  1329.37  1439.29  1456.74
                             1498.95  1632.28  1647.68  1647.70  1649.48
                             1651.36  1651.36  1663.79  1753.76  1772.07
                             1772.45  1773.06  1778.15  1811.21  1813.94
                             1828.84  1828.90  1886.56  1896.57  1917.77
                             1934.81  2032.08  2036.78  2052.07  2211.87
                             2270.32  2375.07  3435.81  3436.04  3437.68
                             3437.97  3821.98  3822.13  3826.23  3826.79
                             4554.52  4555.09  4577.64  4581.18

 Zero-point correction=                           0.242374 (Hartree/Particle)
 Thermal correction to Energy=                    0.269007
 Thermal correction to Enthalpy=                  0.269951
 Thermal correction to Gibbs Free Energy=         0.182262
 Sum of electronic and zero-point Energies=          -2447.117420
 Sum of electronic and thermal Energies=             -2447.090787
 Sum of electronic and thermal Enthalpies=           -2447.089843
 Sum of electronic and thermal Free Energies=        -2447.177533

                     E (Thermal)             CV                S
                      KCal/Mol        Cal/Mol-Kelvin    Cal/Mol-Kelvin
 Total                  168.804            100.445            184.558
 Electronic               0.000              0.000              0.000
 Translational            0.889              2.981             44.228
 Rotational               0.889              2.981             35.805
 Vibrational            167.027             94.483            104.525
 Vibration     1          0.593              1.987              8.232
 Vibration     2          0.593              1.986              7.169
 Vibration     3          0.593              1.984              5.850
 Vibration     4          0.594              1.983              5.612
 Vibration     5          0.596              1.977              4.732
 Vibration     6          0.598              1.967              4.106
 Vibration     7          0.600              1.963              3.915
 Vibration     8          0.600              1.962              3.852
 Vibration     9          0.601              1.959              3.762
 Vibration    10          0.603              1.951              3.499
 Vibration    11          0.604              1.948              3.416
 Vibration    12          0.605              1.944              3.342
 Vibration    13          0.607              1.938              3.199
 Vibration    14          0.611              1.927              3.007
 Vibration    15          0.620              1.898              2.620
 Vibration    16          0.628              1.870              2.351
 Vibration    17          0.629              1.868              2.340
 Vibration    18          0.638              1.840              2.133
 Vibration    19          0.651              1.798              1.895
 Vibration    20          0.675              1.727              1.590
 Vibration    21          0.682              1.704              1.511
 Vibration    22          0.708              1.629              1.295
 Vibration    23          0.709              1.628              1.290
 Vibration    24          0.709              1.626              1.286
 Vibration    25          0.713              1.614              1.256
 Vibration    26          0.723              1.587              1.193
 Vibration    27          0.724              1.585              1.187
 Vibration    28          0.726              1.578              1.173
 Vibration    29          0.731              1.565              1.143
 Vibration    30          0.753              1.505              1.024
 Vibration    31          0.758              1.492              1.002
 Vibration    32          0.782              1.429              0.896
 Vibration    33          0.793              1.400              0.851
 Vibration    34          0.806              1.368              0.805
 Vibration    35          0.806              1.368              0.805
 Vibration    36          0.821              1.331              0.756
 Vibration    37          0.926              1.097              0.505
 Vibration    38          0.926              1.097              0.505
 Vibration    39          0.930              1.089              0.498
 Vibration    40          0.933              1.081              0.491
 Vibration    41          0.953              1.042              0.458
 Vibration    42          0.958              1.031              0.449

 Normal termination of Gaussian 16 at Mon Aug  3 12:24:22 2020.
