 Gaussian 16, Revision C.01,
 Gaussian 16:  ES64L-G16RevC.01  3-Jul-2019

 --------------------------------------------------------------------
 #P B3LYP/6-311++G(d,p) EmpiricalDispersion=GD3 freq(noraman) SCF=YQC
 --------------------------------------------------------------------

 ------------------------------------------
 Restart from 3_Phenyl_Nitrile_Triazine.log
 ------------------------------------------
 Symbolic Z-matrix:
 Charge =  0 Multiplicity = 1

                         Standard orientation:
 ---------------------------------------------------------------------
 Center     Atomic      Atomic             Coordinates (Angstroms)
 Number     Number       Type             X           Y           Z
 ---------------------------------------------------------------------
      1          6           0       -0.000193   -1.400773   -0.000000
      2          6           0       -1.209237   -0.698088   -0.000000
      3          6           0       -1.213062    0.700301   -0.000000
      4          6           0       -0.000000    1.395990    0.000000
      5          6           0        1.212941    0.700143    0.000000
      6          6           0        1.208906   -0.698246    0.000000
      7          1           0        0.000064    2.476813    0.000000
      8          1           0        2.144896   -1.238699    0.000000
      9          1           0       -2.145288   -1.238449   -0.000000
     10          6           0       -0.000187   -2.882808   -0.000000
     11          7           0        1.183923   -3.517369    0.000000
     12          6           0        1.118113   -4.845395    0.000000
     13          7           0       -1.184255   -3.517476   -0.000000
     14          6           0       -1.118331   -4.845486   -0.000000
     15          7           0       -0.000064   -5.575816   -0.000000
     16          1           0       -2.061150   -5.385302   -0.000000
     17          1           0        2.060989   -5.385109    0.000000
     18          6           0        2.496453    1.441100    0.000000
     19          7           0        2.454017    2.783853    0.000000
     20          6           0        3.637065    3.390796    0.000000
     21          7           0        3.638090    0.732919    0.000000
     22          6           0        4.755249    1.453956    0.000000
     23          7           0        4.828677    2.787558    0.000000
     24          1           0        5.694123    0.907311    0.000000
     25          1           0        3.633106    4.477207    0.000000
     26          6           0       -2.496410    1.441544   -0.000000
     27          7           0       -3.638212    0.733685   -0.000000
     28          6           0       -4.755203    1.455021   -0.000000
     29          7           0       -2.453615    2.784298   -0.000000
     30          6           0       -3.636483    3.391555   -0.000000
     31          7           0       -4.828275    2.788633   -0.000000
     32          1           0       -3.632245    4.477965   -0.000000
     33          1           0       -5.694210    0.908604   -0.000000
 ---------------------------------------------------------------------

 SCF Done:  E(RB3LYP) =  -1070.08223291     a.u. after    6 cycles
 SCF Done:  E(RB3LYP) =  -1070.08224551     A.U. after    9 cycles

 The electronic state is 1-A'.
 Alpha  occ. eigenvalues --  -14.34389 -14.34389 -14.34389 -14.34388 -14.34387
 Alpha  occ. eigenvalues --  -14.34387 -14.34238 -14.34238 -14.34238 -10.28579
 Alpha  occ. eigenvalues --  -10.28579 -10.28579 -10.27339 -10.27339 -10.27339
 Alpha  occ. eigenvalues --  -10.27339 -10.27339 -10.27339 -10.21361 -10.21359
 Alpha  occ. eigenvalues --  -10.21359 -10.20693 -10.20692 -10.20688  -1.04821
 Alpha  occ. eigenvalues --   -1.04790  -1.04790  -0.93454  -0.92871  -0.92871
 Alpha  occ. eigenvalues --   -0.92413  -0.92413  -0.92391  -0.88637  -0.80055
 Alpha  occ. eigenvalues --   -0.80054  -0.71541  -0.71541  -0.71167  -0.70647
 Alpha  occ. eigenvalues --   -0.69437  -0.69436  -0.62937  -0.62937  -0.58710
 Alpha  occ. eigenvalues --   -0.58005  -0.56797  -0.56797  -0.53602  -0.53602
 Alpha  occ. eigenvalues --   -0.51715  -0.48151  -0.47906  -0.47498  -0.47497
 Alpha  occ. eigenvalues --   -0.47229  -0.45310  -0.45310  -0.44439  -0.44439
 Alpha  occ. eigenvalues --   -0.44153  -0.41291  -0.39269  -0.39267  -0.39267
 Alpha  occ. eigenvalues --   -0.38482  -0.38481  -0.36668  -0.36668  -0.34973
 Alpha  occ. eigenvalues --   -0.34973  -0.34948  -0.33370  -0.29370  -0.29217
 Alpha  occ. eigenvalues --   -0.29217  -0.28862  -0.28557  -0.28557  -0.27644
 Alpha  occ. eigenvalues --   -0.27644
 Alpha virt. eigenvalues --   -0.09921  -0.09921  -0.07829  -0.07017  -0.06869
 Alpha virt. eigenvalues --   -0.06869  -0.00941  -0.00066  -0.00066  -0.00029
 Alpha virt. eigenvalues --   -0.00029   0.01249   0.01249   0.01593   0.02081

 Mulliken charges:
               1
     1  C    0.607897
     2  C   -0.814572
     3  C    0.607926
     4  C   -0.814878
     5  C    0.607887
     6  C   -0.814681
     7  H    0.325830
     8  H    0.325800
     9  H    0.325741
    10  C   -0.565355
    11  N    0.019843
    12  C    0.061628
    13  N    0.019817
    14  C    0.061634
    15  N   -0.131495
    16  H    0.207533
    17  H    0.207530
    18  C   -0.565581
    19  N    0.019826
    20  C    0.061616
    21  N    0.019822
    22  C    0.061642
    23  N   -0.131485
    24  H    0.207534
    25  H    0.207528
    26  C   -0.565471
    27  N    0.019810
    28  C    0.061633
    29  N    0.019838
    30  C    0.061627
    31  N   -0.131485
    32  H    0.207531
    33  H    0.207531
 Sum of Mulliken charges =   0.00000

 Dipole moment (field-independent basis, Debye):
    X=              0.0000    Y=              0.0000    Z=              0.0000  Tot=              0.0000
 Quadrupole moment (field-independent basis, Debye-Ang):
   XX=           -138.1715   YY=           -138.1723   ZZ=           -135.8422
   XY=              0.0005   XZ=             -0.0000   YZ=              0.0000

  Exact polarizability:     323.052      -0.007     323.070       0.000       0.000     109.953
 Approx polarizability:     488.340      -0.006     488.353       0.000      -0.000     182.276

                      1                      2                      3
                     A"                     A"                     A"
 Frequencies --     28.1106                29.7535                30.0679
 Red. masses --      5.6014                 5.6786                 5.6768
 Frc consts  --      0.0026                 0.0030                 0.0030
 IR Inten    --      0.0000                 0.0000                 0.0000

                      4                      5                      6
                     A"                     A'                     A'
 Frequencies --     45.4985                73.8866                73.8903
 Red. masses --      8.3829                 7.5236                 7.5235
 Frc consts  --      0.0102                 0.0242                 0.0242
 IR Inten    --      0.0078                 0.0659                 0.0654

                      7                      8                      9
                     A"                     A"                     A"
 Frequencies --     98.3669                98.4017               199.3609
 Red. masses --      8.6018                 8.6045                12.0240
 Frc consts  --      0.0490                 0.0491                 0.2816
 IR Inten    --      0.0000                 0.0000                 0.0398

                     10                     11                     12
                     A'                     A"                     A"
 Frequencies --    206.3963               225.4470               225.4786
 Red. masses --      6.7024                 5.1304                 5.1296
 Frc consts  --      0.1682                 0.1536                 0.1537
 IR Inten    --      0.0000                 0.0000                 0.0000

                     13                     14                     15
                     A'                     A'                     A'
 Frequencies --    246.8641               291.5614               291.5769
 Red. masses --     10.2284                 8.6052                 8.6051
 Frc consts  --      0.3673                 0.4310                 0.4310
 IR Inten    --      0.0000                 1.1152                 1.1161

                     16                     17                     18
                     A"                     A"                     A"
 Frequencies --    352.5705               352.7831               352.7914
 Red. masses --      3.4181                 3.4269                 3.4270
 Frc consts  --      0.2503                 0.2513                 0.2513
 IR Inten    --      0.0000                 0.0000                 0.0000

                     19                     20                     21
                     A"                     A"                     A'
 Frequencies --    450.0785               450.1261               453.0370
 Red. masses --      4.1295                 4.1299                 7.3088
 Frc consts  --      0.4929                 0.4930                 0.8838
 IR Inten    --      0.0000                 0.0000                 3.3775

                     22                     23                     24
                     A'                     A"                     A'
 Frequencies --    453.0433               536.5998               585.0746
 Red. masses --      7.3089                 3.1764                 4.7074
 Frc consts  --      0.8839                 0.5389                 0.9494
 IR Inten    --      3.3774                19.5770                 0.0000

                     25                     26                     27
                     A"                     A"                     A'
 Frequencies --    626.1285               626.1354               676.6575
 Red. masses --      3.3224                 3.3229                10.1585
 Frc consts  --      0.7674                 0.7675                 2.7404
 IR Inten    --      0.0000                 0.0000                48.2458

                     28                     29                     30
                     A'                     A"                     A'
 Frequencies --    676.6828               700.2124               710.3297
 Red. masses --     10.1586                 2.3084                 9.3151
 Frc consts  --      2.7407                 0.6668                 2.7692
 IR Inten    --     48.2420                 7.5216                 0.0000

                     31                     32                     33
                     A'                     A'                     A'
 Frequencies --    712.5634               712.5664               740.0218
 Red. masses --      9.2670                 9.2669                 9.3434
 Frc consts  --      2.7723                 2.7723                 3.0147
 IR Inten    --     26.6029                26.5841                 0.0000

                     34                     35                     36
                     A"                     A"                     A"
 Frequencies --    835.3686               854.8095               854.8243
 Red. masses --      4.7687                 6.9557                 6.9568
 Frc consts  --      1.9607                 2.9946                 2.9951
 IR Inten    --     89.2199                 0.0000                 0.0000

                     37                     38                     39
                     A'                     A'                     A"
 Frequencies --    876.5474               876.5639               967.6948
 Red. masses --      7.5809                 7.5806                 1.7105
 Frc consts  --      3.4318                 3.4318                 0.9437
 IR Inten    --      1.0486                 1.0440                10.2610

                     40                     41                     42
                     A"                     A"                     A"
 Frequencies --    973.6323               973.6413               981.3327
 Red. masses --      1.5748                 1.5749                 1.6364
 Frc consts  --      0.8795                 0.8796                 0.9285
 IR Inten    --      0.0000                 0.0000                 0.5094

                     43                     44                     45
                     A"                     A"                     A'
 Frequencies --    996.7313               996.8899              1009.6615
 Red. masses --      1.4032                 1.4030                10.3495
 Frc consts  --      0.8214                 0.8215                 6.2161
 IR Inten    --      0.0000                 0.0003                 0.0000

                     46                     47                     48
                     A'                     A'                     A'
 Frequencies --   1014.0706              1014.0720              1017.1431
 Red. masses --     13.5761                13.5757                 7.3970
 Frc consts  --      8.2255                 8.2253                 4.5089
 IR Inten    --     20.6782                20.6854                 0.0000

                     49                     50                     51
                     A"                     A"                     A"
 Frequencies --   1033.9438              1033.9778              1033.9790
 Red. masses --      1.4796                 1.4795                 1.4795
 Frc consts  --      0.9319                 0.9319                 0.9319
 IR Inten    --      0.0000                 0.0000                 0.0000

                     52                     53                     54
                     A'                     A'                     A'
 Frequencies --   1121.5285              1121.6028              1124.0134
 Red. masses --      1.7127                 1.7123                 8.1432
 Frc consts  --      1.2693                 1.2692                 6.0616
 IR Inten    --     41.5299                41.5153                 0.0052

                     55                     56                     57
                     A'                     A'                     A'
 Frequencies --   1173.3436              1173.9211              1173.9242
 Red. masses --     10.5731                 7.7802                 7.7767
 Frc consts  --      8.5764                 6.3171                 6.3143
 IR Inten    --      0.0059                10.2777                10.2924

                     58                     59                     60
                     A'                     A'                     A'
 Frequencies --   1180.1249              1180.1448              1182.7325
 Red. masses --      2.8792                 2.8798                 2.7385
 Frc consts  --      2.3626                 2.3631                 2.2570
 IR Inten    --      0.3531                 0.3679                 0.0000

                     61                     62                     63
                     A'                     A'                     A'
 Frequencies --   1251.1178              1276.0109              1276.0213
 Red. masses --      2.4198                 3.2290                 3.2287
 Frc consts  --      2.2317                 3.0977                 3.0974
 IR Inten    --      0.0000                24.3593                24.3159

                     64                     65                     66
                     A'                     A'                     A'
 Frequencies --   1306.2979              1321.1403              1321.1422
 Red. masses --      1.5288                 2.7564                 2.7562
 Frc consts  --      1.5370                 2.8346                 2.8344
 IR Inten    --      0.0000                61.6146                61.6535

                     67                     68                     69
                     A'                     A'                     A'
 Frequencies --   1366.0106              1395.1909              1416.9293
 Red. masses --      4.8516                 2.4250                 1.4740
 Frc consts  --      5.3338                 2.7811                 1.7436
 IR Inten    --      0.0000                 0.0000                60.0799

                     70                     71                     72
                     A'                     A'                     A'
 Frequencies --   1416.9390              1419.0457              1437.9998
 Red. masses --      1.4740                 1.6417                 2.1924
 Frc consts  --      1.7437                 1.9478                 2.6711
 IR Inten    --     59.9482                 0.0007               344.1026

                     73                     74                     75
                     A'                     A'                     A'
 Frequencies --   1438.0083              1472.1345              1474.0451
 Red. masses --      2.1923                 3.6650                 4.8865
 Frc consts  --      2.6710                 4.6797                 6.2556
 IR Inten    --    344.1295                 0.0019               236.1298

                     76                     77                     78
                     A'                     A'                     A'
 Frequencies --   1474.0644              1562.7976              1566.8012
 Red. masses --      4.8880                 7.9175                 6.6753
 Frc consts  --      6.2577                11.3931                 9.6550
 IR Inten    --    236.2176                 0.0001                53.1265

                     79                     80                     81
                     A'                     A'                     A'
 Frequencies --   1566.8057              1592.5029              1592.5187
 Red. masses --      6.6760                 5.3956                 5.3958
 Frc consts  --      9.6561                 8.0621                 8.0627
 IR Inten    --     53.0447               886.8244               886.6761

                     82                     83                     84
                     A'                     A'                     A'
 Frequencies --   1604.3689              1636.5868              1636.6061
 Red. masses --      5.9133                 6.3280                 6.3293
 Frc consts  --      8.9678                 9.9860                 9.9884
 IR Inten    --      0.0002                 6.3424                 6.3516

                     85                     86                     87
                     A'                     A'                     A'
 Frequencies --   3159.1778              3159.2247              3159.2350
 Red. masses --      1.0904                 1.0904                 1.0904
 Frc consts  --      6.4117                 6.4121                 6.4121
 IR Inten    --      0.4400                31.1110                30.0797

                     88                     89                     90
                     A'                     A'                     A'
 Frequencies --   3162.4293              3162.4380              3162.7020
 Red. masses --      1.0947                 1.0947                 1.0948
 Frc consts  --      6.4505                 6.4505                 6.4524
 IR Inten    --     33.5359                32.9149                 0.0322

                     91                     92                     93
                     A'                     A'                     A'
 Frequencies --   3225.3387              3225.3773              3225.5074
 Red. masses --      1.0900                 1.0901                 1.0923
 Frc consts  --      6.6808                 6.6818                 6.6954
 IR Inten    --     13.2970                12.5175                 0.8343

 - Thermochemistry -
 -------------------
 Temperature   298.150 Kelvin.  Pressure   1.00000 Atm.
 Atom     1 has atomic number  6 and mass  12.00000

 Molecular mass:   315.09809 amu.
 Principal axes and moments of inertia in atomic units:
                           1         2         3
     Eigenvalues --  8753.991788755.48617**********
           X           -0.35823   0.93363   0.00000
           Y            0.93363   0.35823   0.00000
           Z            0.00000   0.00000   1.00000
 This molecule is an asymmetric top.
 Rotational symmetry number  1.
 Warning -- assumption of classical behavior for rotation
           may cause significant error
 Rotational temperatures (Kelvin)      0.00989     0.00989     0.00495
 Rotational constants (GHZ):           0.20616     0.20613     0.10307
 Zero-point vibrational energy     619490.9 (Joules/Mol)
                                  148.06189 (Kcal/Mol)
 Warning -- explicit consideration of  24 degrees of freedom as
           vibrations may cause significant error
 Vibrational temperatures:     40.44    42.81    43.26    65.46   106.31
          (Kelvin)            106.31   141.53   141.58   286.84   296.96
                              324.37   324.41   355.18   419.49   419.51
                              507.27   507.58   507.59   647.56   647.63
                              651.82   651.83   772.05   841.79   900.86
                              900.87   973.56   973.60  1007.45  1022.01
                             1025.22  1025.22  1064.73  1201.91  1229.88
                             1229.90  1261.16  1261.18  1392.30  1400.84
                             1400.85  1411.92  1434.07  1434.30  1452.68
                             1459.02  1459.02  1463.44  1487.61  1487.66
                             1487.67  1613.63  1613.74  1617.20  1688.18
                             1689.01  1689.02  1697.94  1697.97  1701.69
                             1800.08  1835.90  1835.91  1879.47  1900.83
                             1900.83  1965.38  2007.37  2038.65  2038.66
                             2041.69  2068.96  2068.97  2118.07  2120.82
                             2120.85  2248.52  2254.28  2254.28  2291.26
                             2291.28  2308.33  2354.68  2354.71  4545.35
                             4545.42  4545.43  4550.03  4550.04  4550.42
                             4640.54  4640.60  4640.79

 Zero-point correction=                           0.235952 (Hartree/Particle)
 Thermal correction to Energy=                    0.253514
 Thermal correction to Enthalpy=                  0.254458
 Thermal correction to Gibbs Free Energy=         0.186714
 Sum of electronic and zero-point Energies=          -1069.846294
 Sum of electronic and thermal Energies=             -1069.828732
 Sum of electronic and thermal Enthalpies=           -1069.827787
 Sum of electronic and thermal Free Energies=        -1069.895531

                     E (Thermal)             CV                S
                      KCal/Mol        Cal/Mol-Kelvin    Cal/Mol-Kelvin
 Total                  159.082             66.286            142.579
 Electronic               0.000              0.000              0.000
 Translational            0.889              2.981             43.139
 Rotational               0.889              2.981             35.549
 Vibrational            157.305             60.325             63.890
 Vibration     1          0.593              1.984              5.958
 Vibration     2          0.594              1.984              5.846
 Vibration     3          0.594              1.984              5.825
 Vibration     4          0.595              1.979              5.004
 Vibration     5          0.599              1.966              4.047
 Vibration     6          0.599              1.966              4.047
 Vibration     7          0.604              1.950              3.486
 Vibration     8          0.604              1.950              3.486
 Vibration     9          0.637              1.841              2.139
 Vibration    10          0.641              1.831              2.075
 Vibration    11          0.650              1.802              1.915
 Vibration    12          0.650              1.802              1.915
 Vibration    13          0.661              1.768              1.753
 Vibration    14          0.687              1.689              1.465
 Vibration    15          0.687              1.689              1.465
 Vibration    16          0.729              1.570              1.155
 Vibration    17          0.729              1.570              1.154
 Vibration    18          0.729              1.570              1.154
 Vibration    19          0.809              1.361              0.796
 Vibration    20          0.809              1.361              0.795
 Vibration    21          0.812              1.354              0.787
 Vibration    22          0.812              1.354              0.787
 Vibration    23          0.892              1.169              0.573
 Vibration    24          0.942              1.064              0.476

 Optimization completed.
    -- Stationary point found.
 Normal termination of Gaussian 16 at Sun Aug  2 08:37:27 2020.
