 Gaussian 16, Revision C.01,
 Gaussian 16:  ES64L-G16RevC.01  3-Jul-2019

 ----------------------------------------------------------------------
 #P B3LYP/6-311++G(d,p) EmpiricalDispersion=GD3 freq(noraman) SCF=YQC N
 oSymm
 ----------------------------------------------------------------------

 --------------------------------------------
 Restart from BiPhenyl_PrimaryAmine_Imide.log
 --------------------------------------------
 Symbolic Z-matrix:
 Charge =  0 Multiplicity = 1

                          Input orientation:
 ---------------------------------------------------------------------
 Center     Atomic      Atomic             Coordinates (Angstroms)
 Number     Number       Type             X           Y           Z
 ---------------------------------------------------------------------
      1          6           0       -0.004767    3.551969   -0.008391
      2          6           0        1.133047    2.854487   -0.417171
      3          6           0        1.126466    1.465122   -0.420758
      4          6           0       -0.000993    0.741083   -0.008354
      5          6           0       -1.130382    1.462102    0.404056
      6          6           0       -1.140693    2.851445    0.400434
      7          6           0        0.000993   -0.741084   -0.008354
      8          6           0       -1.126466   -1.465123   -0.420758
      9          6           0       -1.133047   -2.854489   -0.417170
     10          6           0        0.004767   -3.551970   -0.008391
     11          6           0        1.140693   -2.851447    0.400433
     12          6           0        1.130383   -1.462104    0.404055
     13          1           0       -2.006448   -3.395965   -0.753282
     14          1           0       -2.015537    3.390587    0.736550
     15          1           0        2.015537   -3.390589    0.736550
     16          1           0        2.006448    3.395963   -0.753283
     17          1           0       -2.005210   -0.935588   -0.769704
     18          1           0       -2.007698    0.930219    0.753026
     19          1           0        2.005210    0.935586   -0.769705
     20          1           0        2.007698   -0.930220    0.753025
     21          6           0        0.304296    7.188318   -0.628948
     22          6           0        0.628769    8.368150   -1.277991
     23          1           0        1.116452    8.354369   -2.245057
     24          6           0        0.301850    9.565932   -0.633228
     25          1           0        0.539421   10.511201   -1.107399
     26          6           0       -0.327367    9.565062    0.616730
     27          1           0       -0.567424   10.509670    1.090965
     28          6           0       -0.651132    8.366381    1.261415
     29          1           0       -1.138775    8.351252    2.228480
     30          6           0       -0.323552    7.187450    0.612294
     31          6           0       -0.534815    5.775974    1.036915
     32          6           0        0.519306    5.777432   -1.053649
     33          7           0       -0.006687    4.977420   -0.008386
     34          8           0        1.030730    5.369536   -2.067347
     35          8           0       -1.045147    5.366653    2.050588
     36          6           0       -0.304296   -7.188319   -0.628947
     37          6           0       -0.628769   -8.368151   -1.277991
     38          1           0       -1.116452   -8.354370   -2.245056
     39          6           0       -0.301850   -9.565933   -0.633227
     40          1           0       -0.539421  -10.511202   -1.107399
     41          6           0        0.327367   -9.565063    0.616730
     42          1           0        0.567425  -10.509672    1.090965
     43          6           0        0.651132   -8.366382    1.261415
     44          1           0        1.138775   -8.351253    2.228480
     45          6           0        0.323552   -7.187451    0.612295
     46          6           0        0.534815   -5.775975    1.036915
     47          6           0       -0.519306   -5.777434   -1.053649
     48          7           0        0.006687   -4.977421   -0.008386
     49          8           0       -1.030730   -5.369537   -2.067346
     50          8           0        1.045147   -5.366654    2.050588
 ---------------------------------------------------------------------

 SCF Done:  E(RB3LYP) =  -1487.52593215     a.u. after    8 cycles
 SCF Done:  E(RB3LYP) =  -1487.52595468     A.U. after   10 cycles

 Alpha  occ. eigenvalues --  -19.13238 -19.13238 -19.13237 -19.13237 -14.38185
 Alpha  occ. eigenvalues --  -14.38185 -10.30949 -10.30949 -10.30949 -10.30949
 Alpha  occ. eigenvalues --  -10.22975 -10.22975 -10.21451 -10.21451 -10.21396
 Alpha  occ. eigenvalues --  -10.21396 -10.21258 -10.21258 -10.21255 -10.21255
 Alpha  occ. eigenvalues --  -10.21145 -10.21145 -10.21095 -10.21095 -10.19422
 Alpha  occ. eigenvalues --  -10.19392 -10.18547 -10.18547 -10.18547 -10.18546
 Alpha  occ. eigenvalues --  -10.18354 -10.18354 -10.18353 -10.18353  -1.09014
 Alpha  occ. eigenvalues --   -1.09013  -1.07300  -1.07300  -0.98068  -0.98065
 Alpha  occ. eigenvalues --   -0.90217  -0.90128  -0.87951  -0.86195  -0.82168
 Alpha  occ. eigenvalues --   -0.80750  -0.78920  -0.78920  -0.77429  -0.76485
 Alpha  occ. eigenvalues --   -0.75840  -0.73785  -0.69002  -0.68584  -0.68548
 Alpha  occ. eigenvalues --   -0.66644  -0.64457  -0.63445  -0.62907  -0.61722
 Alpha  occ. eigenvalues --   -0.60753  -0.60315  -0.58662  -0.57949  -0.54686
 Alpha  occ. eigenvalues --   -0.53962  -0.53207  -0.53021  -0.51734  -0.50186
 Alpha  occ. eigenvalues --   -0.50108  -0.50037  -0.49183  -0.47759  -0.47746
 Alpha  occ. eigenvalues --   -0.47281  -0.47134  -0.46777  -0.45999  -0.45807
 Alpha  occ. eigenvalues --   -0.45673  -0.45573  -0.45406  -0.45020  -0.44652
 Alpha  occ. eigenvalues --   -0.43628  -0.42956  -0.41767  -0.41622  -0.41247
 Alpha  occ. eigenvalues --   -0.40384  -0.40255  -0.39960  -0.39735  -0.38944
 Alpha  occ. eigenvalues --   -0.38862  -0.38738  -0.37559  -0.37115  -0.36603
 Alpha  occ. eigenvalues --   -0.35292  -0.32462  -0.31184  -0.30773  -0.30705
 Alpha  occ. eigenvalues --   -0.29507  -0.29219  -0.29170  -0.29169  -0.28475
 Alpha  occ. eigenvalues --   -0.28443  -0.26538  -0.26503  -0.26489  -0.22917
 Alpha virt. eigenvalues --   -0.09754  -0.09754  -0.06737  -0.06103  -0.03953
 Alpha virt. eigenvalues --   -0.02393  -0.02179  -0.01388  -0.01382  -0.00186
 Alpha virt. eigenvalues --   -0.00048   0.00567   0.00657   0.00715   0.00733

 Mulliken charges:
               1
     1  C   -0.516132
     2  C   -0.146477
     3  C   -0.282728
     4  C    0.722078
     5  C   -0.282669
     6  C   -0.146541
     7  C    0.722077
     8  C   -0.282729
     9  C   -0.146477
    10  C   -0.516133
    11  C   -0.146542
    12  C   -0.282666
    13  H    0.213354
    14  H    0.213355
    15  H    0.213356
    16  H    0.213354
    17  H    0.172401
    18  H    0.172405
    19  H    0.172401
    20  H    0.172405
    21  C    0.639809
    22  C   -0.450535
    23  H    0.197023
    24  C   -0.345088
    25  H    0.181815
    26  C   -0.345076
    27  H    0.181815
    28  C   -0.450550
    29  H    0.197023
    30  C    0.639794
    31  C   -0.206752
    32  C   -0.206774
    33  N    0.362428
    34  O   -0.256993
    35  O   -0.256986
    36  C    0.639806
    37  C   -0.450535
    38  H    0.197023
    39  C   -0.345088
    40  H    0.181816
    41  C   -0.345075
    42  H    0.181815
    43  C   -0.450548
    44  H    0.197023
    45  C    0.639795
    46  C   -0.206749
    47  C   -0.206775
    48  N    0.362428
    49  O   -0.256993
    50  O   -0.256986
 Sum of Mulliken charges =  -0.00000

 Dipole moment (field-independent basis, Debye):
    X=             -0.0000    Y=             -0.0000    Z=              0.0003  Tot=              0.0003
 Quadrupole moment (field-independent basis, Debye-Ang):
   XX=           -189.2911   YY=            -87.8587   ZZ=           -212.8447
   XY=             -0.1348   XZ=              0.0000   YZ=              0.0000

  Exact polarizability:     241.287      -0.547     652.139      -0.000      -0.000     272.933
 Approx polarizability:     451.205      -0.415     765.686      -0.000      -0.000     521.233

                      1                      2                      3
                      A                      A                      A
 Frequencies --     14.1332                20.1422                21.5955
 Red. masses --      6.6934                 6.3201                 7.7564
 Frc consts  --      0.0008                 0.0015                 0.0021
 IR Inten    --      0.8701                 1.2861                 0.0000

                      4                      5                      6
                      A                      A                      A
 Frequencies --     41.2355                52.4315                56.2194
 Red. masses --      7.3008                 7.4510                 4.1164
 Frc consts  --      0.0073                 0.0121                 0.0077
 IR Inten    --      0.3096                 0.1792                 1.4526

                      7                      8                      9
                      A                      A                      A
 Frequencies --     75.8248                89.5565               110.8522
 Red. masses --      7.5258                 3.7797                 7.3163
 Frc consts  --      0.0255                 0.0179                 0.0530
 IR Inten    --      4.0652                 0.0000                 1.2729

                     10                     11                     12
                      A                      A                      A
 Frequencies --    123.1346               136.2800               137.0684
 Red. masses --      8.8880                 5.1514                 5.2832
 Frc consts  --      0.0794                 0.0564                 0.0585
 IR Inten    --      0.0000                 0.3895                 0.0000

                     13                     14                     15
                      A                      A                      A
 Frequencies --    147.1398               161.9171               176.4204
 Red. masses --     10.5956                 9.7323                 6.4770
 Frc consts  --      0.1352                 0.1503                 0.1188
 IR Inten    --      1.8276                 5.1437                 0.1404

                     16                     17                     18
                      A                      A                      A
 Frequencies --    194.6069               206.1059               254.1505
 Red. masses --      5.9999                 6.5841                 6.6827
 Frc consts  --      0.1339                 0.1648                 0.2543
 IR Inten    --      0.5654                 0.4478                 1.3478

                     19                     20                     21
                      A                      A                      A
 Frequencies --    264.8904               277.3499               294.5015
 Red. masses --      8.1226                 8.0948                 6.3285
 Frc consts  --      0.3358                 0.3669                 0.3234
 IR Inten    --      0.3454                19.9767                 1.0225

                     22                     23                     24
                      A                      A                      A
 Frequencies --    339.3690               363.3482               365.1905
 Red. masses --      8.0458                11.2093                10.2509
 Frc consts  --      0.5460                 0.8719                 0.8055
 IR Inten    --      0.1615                 0.0000                18.5027

                     25                     26                     27
                      A                      A                      A
 Frequencies --    395.3324               408.4607               413.2160
 Red. masses --      4.6789                 4.2912                 3.1128
 Frc consts  --      0.4308                 0.4218                 0.3132
 IR Inten    --      0.0008                 0.5265                 0.1012

                     28                     29                     30
                      A                      A                      A
 Frequencies --    417.3889               423.6824               430.9488
 Red. masses --      2.9598                 3.0671                 4.9899
 Frc consts  --      0.3038                 0.3244                 0.5460
 IR Inten    --      4.7909                 0.0000                 2.2284

                     31                     32                     33
                      A                      A                      A
 Frequencies --    433.7190               463.5548               463.5678
 Red. masses --      6.4991                 4.8429                 4.8428
 Frc consts  --      0.7203                 0.6131                 0.6132
 IR Inten    --      0.0000                 0.0005                 0.0000

                     34                     35                     36
                      A                      A                      A
 Frequencies --    476.0827               538.0347               538.7362
 Red. masses --      4.4933                 5.4858                 7.4859
 Frc consts  --      0.6000                 0.9356                 1.2801
 IR Inten    --      1.2395                38.7603                 4.1965

                     37                     38                     39
                      A                      A                      A
 Frequencies --    541.8261               566.8041               576.2834
 Red. masses --      3.5025                 2.4139                 9.9434
 Frc consts  --      0.6058                 0.4569                 1.9456
 IR Inten    --      5.5968                 6.5416                 0.2676

                     40                     41                     42
                      A                      A                      A
 Frequencies --    586.6162               636.3782               643.5175
 Red. masses --     10.5698                10.2345                 7.0856
 Frc consts  --      2.1430                 2.4420                 1.7288
 IR Inten    --      0.0000                58.6055                 0.1966

                     43                     44                     45
                      A                      A                      A
 Frequencies --    656.7797               677.7650               677.8037
 Red. masses --      6.4125                 4.9153                 4.9201
 Frc consts  --      1.6297                 1.3303                 1.3318
 IR Inten    --      2.3464                 0.0000                 1.0771

                     46                     47                     48
                      A                      A                      A
 Frequencies --    685.8518               716.1711               716.2741
 Red. masses --      8.0774                 5.5357                 5.6329
 Frc consts  --      2.2386                 1.6729                 1.7027
 IR Inten    --      0.0000                 1.5567                10.5018

                     49                     50                     51
                      A                      A                      A
 Frequencies --    718.4406               727.3926               727.5237
 Red. masses --      6.8229                 2.5541                 2.6105
 Frc consts  --      2.0749                 0.7962                 0.8141
 IR Inten    --     12.9637                93.8585                38.6410

                     52                     53                     54
                      A                      A                      A
 Frequencies --    738.4748               758.8665               764.6438
 Red. masses --      3.9092                 3.7118                 6.2992
 Frc consts  --      1.2561                 1.2594                 2.1700
 IR Inten    --      2.1822                 8.0358                 0.0000

                     55                     56                     57
                      A                      A                      A
 Frequencies --    795.0858               795.2507               800.2301
 Red. masses --      6.2532                 6.2604                 1.8823
 Frc consts  --      2.3291                 2.3327                 0.7102
 IR Inten    --      5.7369                 0.0000                 9.8084

                     58                     59                     60
                      A                      A                      A
 Frequencies --    800.6597               835.2445               838.1732
 Red. masses --      1.9211                 1.6423                 1.2550
 Frc consts  --      0.7256                 0.6751                 0.5195
 IR Inten    --     24.1006                53.5236                 0.0256

                     61                     62                     63
                      A                      A                      A
 Frequencies --    838.8717               858.6448               867.9891
 Red. masses --      1.2915                 6.6383                 1.9588
 Frc consts  --      0.5355                 2.8836                 0.8695
 IR Inten    --      0.0000                67.3410                12.8763

                     64                     65                     66
                      A                      A                      A
 Frequencies --    869.1372               894.0741               895.0292
 Red. masses --      5.7537                 6.9138                 5.8069
 Frc consts  --      2.5608                 3.2562                 2.7407
 IR Inten    --      0.0000                36.5912                24.8555

                     67                     68                     69
                      A                      A                      A
 Frequencies --    907.1793               907.1876               964.8704
 Red. masses --      1.3605                 1.3608                 1.3355
 Frc consts  --      0.6597                 0.6598                 0.7325
 IR Inten    --      0.5440                 0.0005                 4.3118

                     70                     71                     72
                      A                      A                      A
 Frequencies --    971.1164               979.2809               981.4182
 Red. masses --      1.3892                 1.3637                 1.3574
 Frc consts  --      0.7719                 0.7705                 0.7703
 IR Inten    --      1.5454                 1.7872                 0.0000

                     73                     74                     75
                      A                      A                      A
 Frequencies --    982.9884               982.9914              1012.3132
 Red. masses --      1.3986                 1.3986                 1.3224
 Frc consts  --      0.7963                 0.7963                 0.7984
 IR Inten    --      0.3541                 1.7545                 0.0239

                     76                     77                     78
                      A                      A                      A
 Frequencies --   1012.3239              1024.2657              1029.6417
 Red. masses --      1.3224                 6.1101                 2.2800
 Frc consts  --      0.7985                 3.7768                 1.4242
 IR Inten    --      0.0001                24.7779                 6.3002

                     79                     80                     81
                      A                      A                      A
 Frequencies --   1029.6642              1040.8227              1054.9501
 Red. masses --      2.2938                 2.8193                 2.5540
 Frc consts  --      1.4328                 1.7995                 1.6747
 IR Inten    --      0.0002                 0.0000                 0.1931

                     82                     83                     84
                      A                      A                      A
 Frequencies --   1087.7495              1088.4692              1110.4574
 Red. masses --      4.3168                 4.1108                 3.3158
 Frc consts  --      3.0093                 2.8695                 2.4090
 IR Inten    --     26.2249               152.8645                 3.6133

                     85                     86                     87
                      A                      A                      A
 Frequencies --   1111.1425              1131.6718              1133.1915
 Red. masses --      3.3653                 3.2306                 2.8733
 Frc consts  --      2.4480                 2.4377                 2.1739
 IR Inten    --     37.9359                 0.0000                 8.4708

                     88                     89                     90
                      A                      A                      A
 Frequencies --   1160.8429              1162.1181              1190.4618
 Red. masses --      1.3675                 1.4788                 1.1802
 Frc consts  --      1.0857                 1.1767                 0.9854
 IR Inten    --     15.1180                22.5237                 1.9074

                     91                     92                     93
                      A                      A                      A
 Frequencies --   1190.4642              1192.8355              1192.8554
 Red. masses --      1.1808                 2.1969                 2.1971
 Frc consts  --      0.9859                 1.8417                 1.8420
 IR Inten    --     19.3384                 0.5468                 3.9732

                     94                     95                     96
                      A                      A                      A
 Frequencies --   1222.2653              1227.4117              1241.9601
 Red. masses --      1.1810                 1.3850                 3.7735
 Frc consts  --      1.0396                 1.2294                 3.4293
 IR Inten    --      2.1528                 0.0000               136.3174

                     97                     98                     99
                      A                      A                      A
 Frequencies --   1246.6886              1300.4934              1306.9643
 Red. masses --      2.6770                 4.4397                 1.5628
 Frc consts  --      2.4514                 4.4240                 1.5729
 IR Inten    --      0.0000                 0.2183                 0.5844

                    100                    101                    102
                      A                      A                      A
 Frequencies --   1306.9644              1310.1404              1327.0692
 Red. masses --      1.5629                 3.3203                 9.5744
 Frc consts  --      1.5729                 3.3579                 9.9346
 IR Inten    --      0.2196                 0.0000                 1.3705

                    103                    104                    105
                      A                      A                      A
 Frequencies --   1349.1601              1350.7601              1375.7912
 Red. masses --      1.3264                 1.5310                 7.4654
 Frc consts  --      1.4225                 1.6458                 8.3254
 IR Inten    --      0.0963                 2.2114              1189.0288

                    106                    107                    108
                      A                      A                      A
 Frequencies --   1380.7948              1388.8598              1391.0236
 Red. masses --      7.6293                 5.8686                 6.4371
 Frc consts  --      8.5703                 6.6696                 7.3385
 IR Inten    --      0.0000               496.1625                 0.0000

                    109                    110                    111
                      A                      A                      A
 Frequencies --   1436.0731              1459.0409              1495.3785
 Red. masses --      2.5894                 2.9745                 2.4096
 Frc consts  --      3.1463                 3.7307                 3.1747
 IR Inten    --      8.5331                 3.6960                 2.4460

                    112                    113                    114
                      A                      A                      A
 Frequencies --   1495.3858              1495.5991              1495.6537
 Red. masses --      2.4100                 2.5702                 2.5750
 Frc consts  --      3.1752                 3.3872                 3.3939
 IR Inten    --      9.6865                 2.6410                 0.0000

                    115                    116                    117
                      A                      A                      A
 Frequencies --   1536.3015              1560.2099              1597.9508
 Red. masses --      2.2905                 2.6900                 6.1844
 Frc consts  --      3.1852                 3.8581                 9.3041
 IR Inten    --    308.2412                 0.0000                 0.0017

                    118                    119                    120
                      A                      A                      A
 Frequencies --   1617.4170              1645.9051              1645.9167
 Red. masses --      7.0568                 6.4713                 6.8671
 Frc consts  --     10.8768                10.3288                10.9607
 IR Inten    --      0.7228                 0.0167                 6.0791

                    121                    122                    123
                      A                      A                      A
 Frequencies --   1645.9229              1646.8800              1650.5400
 Red. masses --      6.8672                 7.0753                 6.1538
 Frc consts  --     10.9609                11.3063                 9.8774
 IR Inten    --     25.6810                 9.0608                 0.0000

                    124                    125                    126
                      A                      A                      A
 Frequencies --   1653.9974              1775.2867              1775.8817
 Red. masses --      5.8089                12.8937                12.8929
 Frc consts  --      9.3630                23.9422                23.9568
 IR Inten    --      1.7564               210.2062              1004.1955

                    127                    128                    129
                      A                      A                      A
 Frequencies --   1827.8356              1828.5823              3170.9561
 Red. masses --     12.9936                12.9879                 1.0873
 Frc consts  --     25.5773                25.5869                 6.4411
 IR Inten    --     45.9775                 0.0000                 1.6398

                    130                    131                    132
                      A                      A                      A
 Frequencies --   3170.9622              3174.6693              3175.1436
 Red. masses --      1.0873                 1.0898                 1.0898
 Frc consts  --      6.4411                 6.4714                 6.4732
 IR Inten    --      1.6468                 2.4629                22.0575

                    133                    134                    135
                      A                      A                      A
 Frequencies --   3180.0326              3180.0806              3184.4893
 Red. masses --      1.0889                 1.0895                 1.0908
 Frc consts  --      6.4879                 6.4916                 6.5176
 IR Inten    --      7.8316                 0.0041                10.0631

                    136                    137                    138
                      A                      A                      A
 Frequencies --   3184.4937              3196.5236              3196.5267
 Red. masses --      1.0908                 1.0939                 1.0939
 Frc consts  --      6.5176                 6.5857                 6.5857
 IR Inten    --      2.5200                 2.3732                 2.5380

                    139                    140                    141
                      A                      A                      A
 Frequencies --   3199.9815              3199.9961              3212.8168
 Red. masses --      1.0966                 1.0966                 1.0931
 Frc consts  --      6.6162                 6.6162                 6.6478
 IR Inten    --     24.6993                 0.0127                 0.0597

                    142                    143                    144
                      A                      A                      A
 Frequencies --   3212.9329              3213.1472              3213.5702
 Red. masses --      1.0931                 1.0939                 1.0941
 Frc consts  --      6.6486                 6.6542                 6.6570
 IR Inten    --      3.5903                 4.2968                 0.0000

 - Thermochemistry -
 -------------------
 Temperature   298.150 Kelvin.  Pressure   1.00000 Atm.
 Atom     1 has atomic number  6 and mass  12.00000

 Molecular mass:   444.11101 amu.
 Principal axes and moments of inertia in atomic units:
                           1         2         3
     Eigenvalues --  2705.25433********************
           X           -0.00134  -0.00000   1.00000
           Y            1.00000   0.00000   0.00134
           Z           -0.00000   1.00000   0.00000
 This molecule is an asymmetric top.
 Rotational symmetry number  1.
 Warning -- assumption of classical behavior for rotation
           may cause significant error
 Rotational temperatures (Kelvin)      0.03202     0.00149     0.00148
 Rotational constants (GHZ):           0.66712     0.03114     0.03074
 Zero-point vibrational energy     976414.1 (Joules/Mol)
                                  233.36858 (Kcal/Mol)
 Warning -- explicit consideration of  40 degrees of freedom as
           vibrations may cause significant error
 Vibrational temperatures:     20.33    28.98    31.07    59.33    75.44
          (Kelvin)             80.89   109.09   128.85   159.49   177.16
                              196.08   197.21   211.70   232.96   253.83
                              280.00   296.54   365.67   381.12   399.04
                              423.72   488.28   522.78   525.43   568.80
                              587.68   594.53   600.53   609.58   620.04
                              624.02   666.95   666.97   684.98   774.11
                              775.12   779.57   815.50   829.14   844.01
                              915.61   925.88   944.96   975.15   975.21
                              986.79  1030.41  1030.56  1033.68  1046.56
                             1046.74  1062.50  1091.84  1100.15  1143.95
                             1144.19  1151.35  1151.97  1201.73  1205.94
                             1206.95  1235.40  1248.84  1250.49  1286.37
                             1287.75  1305.23  1305.24  1388.23  1397.22
                             1408.97  1412.04  1414.30  1414.31  1456.49
                             1456.51  1473.69  1481.42  1481.46  1497.51
                             1517.84  1565.03  1566.06  1597.70  1598.69
                             1628.22  1630.41  1670.19  1672.03  1712.81
                             1712.81  1716.22  1716.25  1758.57  1765.97
                             1786.90  1793.71  1871.12  1880.43  1880.43
                             1885.00  1909.36  1941.14  1943.44  1979.46
                             1986.66  1998.26  2001.37  2066.19  2099.23
                             2151.52  2151.53  2151.83  2151.91  2210.40
                             2244.79  2299.09  2327.10  2368.09  2368.11
                             2368.12  2369.49  2374.76  2379.73  2554.24
                             2555.10  2629.85  2630.92  4562.30  4562.31
                             4567.64  4568.32  4575.36  4575.43  4581.77
                             4581.78  4599.08  4599.09  4604.06  4604.08
                             4622.53  4622.69  4623.00  4623.61

 Zero-point correction=                           0.371896 (Hartree/Particle)
 Thermal correction to Energy=                    0.397450
 Thermal correction to Enthalpy=                  0.398395
 Thermal correction to Gibbs Free Energy=         0.313519
 Sum of electronic and zero-point Energies=          -1487.154058
 Sum of electronic and thermal Energies=             -1487.128504
 Sum of electronic and thermal Enthalpies=           -1487.127560
 Sum of electronic and thermal Free Energies=        -1487.212435

                     E (Thermal)             CV                S
                      KCal/Mol        Cal/Mol-Kelvin    Cal/Mol-Kelvin
 Total                  249.404            101.713            178.635
 Electronic               0.000              0.000              0.000
 Translational            0.889              2.981             44.162
 Rotational               0.889              2.981             37.463
 Vibrational            247.626             95.752             97.010
 Vibration     1          0.593              1.986              7.324
 Vibration     2          0.593              1.986              6.620
 Vibration     3          0.593              1.985              6.482
 Vibration     4          0.594              1.981              5.199
 Vibration     5          0.596              1.977              4.724
 Vibration     6          0.596              1.975              4.586
 Vibration     7          0.599              1.965              3.996
 Vibration     8          0.602              1.957              3.670
 Vibration     9          0.607              1.940              3.254
 Vibration    10          0.610              1.930              3.051
 Vibration    11          0.614              1.917              2.855
 Vibration    12          0.614              1.916              2.844
 Vibration    13          0.617              1.906              2.709
 Vibration    14          0.622              1.889              2.527
 Vibration    15          0.628              1.871              2.366
 Vibration    16          0.635              1.847              2.183
 Vibration    17          0.641              1.831              2.078
 Vibration    18          0.665              1.756              1.702
 Vibration    19          0.671              1.737              1.629
 Vibration    20          0.678              1.715              1.550
 Vibration    21          0.689              1.684              1.448
 Vibration    22          0.719              1.597              1.215
 Vibration    23          0.737              1.548              1.108
 Vibration    24          0.738              1.544              1.100
 Vibration    25          0.762              1.480              0.980
 Vibration    26          0.773              1.452              0.932
 Vibration    27          0.777              1.442              0.915
 Vibration    28          0.780              1.432              0.901
 Vibration    29          0.786              1.419              0.880
 Vibration    30          0.792              1.403              0.856
 Vibration    31          0.794              1.397              0.847
 Vibration    32          0.821              1.331              0.756
 Vibration    33          0.821              1.331              0.756
 Vibration    34          0.833              1.303              0.721
 Vibration    35          0.893              1.166              0.570
 Vibration    36          0.894              1.164              0.568
 Vibration    37          0.897              1.158              0.561
 Vibration    38          0.923              1.103              0.510
 Vibration    39          0.933              1.083              0.492
 Vibration    40          0.944              1.060              0.473

 Optimization completed.
    -- Stationary point found.
 Normal termination of Gaussian 16 at Tue Jan 12 11:50:25 2021.
