 Gaussian 16, Revision C.01,
 Gaussian 16:  ES64L-G16RevC.01  3-Jul-2019

 --------------------------------------------------------------------
 #P B3LYP/6-311++G(d,p) EmpiricalDispersion=GD3 freq(noraman) SCF=YQC
 --------------------------------------------------------------------

 ------------------------------------------------------
 Restart from Pyrene_H_Cyanohydrine_Benzobisoxazole.log
 ------------------------------------------------------
 Symbolic Z-matrix:
 Charge =  0 Multiplicity = 1

                         Standard orientation:
 ---------------------------------------------------------------------
 Center     Atomic      Atomic             Coordinates (Angstroms)
 Number     Number       Type             X           Y           Z
 ---------------------------------------------------------------------
      1          6           0        3.554076    0.015095    0.000012
      2          6           0        2.871686   -1.197180   -0.000008
      3          6           0        1.471629   -1.215318   -0.000023
      4          6           0        0.722870    0.005952   -0.000017
      5          6           0        1.459223    1.231360   -0.000004
      6          6           0        2.858061    1.220822    0.000013
      7          1           0        3.411491   -2.136322   -0.000010
      8          1           0        3.384534    2.167331    0.000025
      9          6           0       -0.722870   -0.005952   -0.000017
     10          6           0       -1.459223   -1.231360   -0.000004
     11          6           0       -2.858061   -1.220822    0.000013
     12          6           0       -3.554076   -0.015095    0.000012
     13          6           0       -2.871686    1.197180   -0.000008
     14          6           0       -1.471629    1.215318   -0.000023
     15          1           0       -3.384534   -2.167331    0.000025
     16          1           0       -3.411491    2.136322   -0.000010
     17          6           0        0.685517    2.437353   -0.000005
     18          6           0       -0.685517    2.396269   -0.000041
     19          6           0        0.685517   -2.396269   -0.000041
     20          6           0       -0.685517   -2.437353   -0.000005
     21          1           0        4.638040    0.020506    0.000029
     22          1           0       -4.638040   -0.020506    0.000029
     23          7           0        1.100085    3.759086    0.000007
     24          8           0       -1.143751    3.683979   -0.000044
     25          6           0       -0.000017    4.453730   -0.000002
     26          6           0       -1.425305    6.495088    0.000217
     27          6           0       -1.546569    7.881143    0.000234
     28          1           0       -2.308485    5.869011    0.000369
     29          6           0       -0.407802    8.686151    0.000035
     30          1           0       -2.531651    8.333484    0.000405
     31          6           0        0.858661    8.098124   -0.000185
     32          1           0       -0.505638    9.765783    0.000055
     33          6           0        0.989088    6.714891   -0.000204
     34          1           0        1.745987    8.720785   -0.000348
     35          1           0        1.965872    6.247642   -0.000376
     36          6           0       -0.154757    5.901952    0.000002
     37          7           0       -1.100085   -3.759086    0.000007
     38          8           0        1.143751   -3.683979   -0.000044
     39          6           0        0.000017   -4.453730   -0.000002
     40          6           0        1.425305   -6.495088    0.000217
     41          6           0        1.546569   -7.881143    0.000234
     42          1           0        2.308485   -5.869011    0.000369
     43          6           0        0.407802   -8.686151    0.000035
     44          1           0        2.531651   -8.333484    0.000405
     45          6           0       -0.858661   -8.098124   -0.000185
     46          1           0        0.505638   -9.765783    0.000055
     47          6           0       -0.989088   -6.714891   -0.000204
     48          1           0       -1.745987   -8.720785   -0.000348
     49          1           0       -1.965872   -6.247642   -0.000376
     50          6           0        0.154757   -5.901952    0.000002
 ---------------------------------------------------------------------

 SCF Done:  E(RB3LYP) =  -1413.24292298     a.u. after    7 cycles
 SCF Done:  E(RB3LYP) =  -1413.24293528     A.U. after    9 cycles

 The electronic state is 1-A.
 Alpha  occ. eigenvalues --  -19.20970 -19.20970 -14.32274 -14.32274 -10.27986
 Alpha  occ. eigenvalues --  -10.27986 -10.24315 -10.24315 -10.21446 -10.21446
 Alpha  occ. eigenvalues --  -10.20631 -10.20631 -10.20577 -10.20577 -10.20422
 Alpha  occ. eigenvalues --  -10.20384 -10.20087 -10.20087 -10.19186 -10.19186
 Alpha  occ. eigenvalues --  -10.19021 -10.19021 -10.18973 -10.18973 -10.18910
 Alpha  occ. eigenvalues --  -10.18910 -10.18837 -10.18837 -10.18756 -10.18756
 Alpha  occ. eigenvalues --  -10.18677 -10.18677 -10.18364 -10.18364  -1.14526
 Alpha  occ. eigenvalues --   -1.14522  -0.94283  -0.94212  -0.90722  -0.87975
 Alpha  occ. eigenvalues --   -0.87677  -0.86631  -0.84271  -0.81467  -0.79385
 Alpha  occ. eigenvalues --   -0.78291  -0.78155  -0.76415  -0.76357  -0.74821
 Alpha  occ. eigenvalues --   -0.74250  -0.72442  -0.67742  -0.65661  -0.65395
 Alpha  occ. eigenvalues --   -0.65210  -0.64616  -0.62342  -0.61794  -0.60919
 Alpha  occ. eigenvalues --   -0.59506  -0.58809  -0.57041  -0.56786  -0.56449
 Alpha  occ. eigenvalues --   -0.54513  -0.52871  -0.51800  -0.50677  -0.49651
 Alpha  occ. eigenvalues --   -0.49577  -0.49317  -0.49085  -0.48034  -0.47087
 Alpha  occ. eigenvalues --   -0.46778  -0.46433  -0.45708  -0.45565  -0.45029
 Alpha  occ. eigenvalues --   -0.44003  -0.43820  -0.43662  -0.43293  -0.43186
 Alpha  occ. eigenvalues --   -0.41849  -0.41735  -0.40196  -0.39180  -0.38881
 Alpha  occ. eigenvalues --   -0.38731  -0.38373  -0.38057  -0.37176  -0.36826
 Alpha  occ. eigenvalues --   -0.36362  -0.36069  -0.35569  -0.35172  -0.34959
 Alpha  occ. eigenvalues --   -0.34746  -0.32980  -0.31168  -0.30663  -0.30355
 Alpha  occ. eigenvalues --   -0.28992  -0.27759  -0.27198  -0.27078  -0.27046
 Alpha  occ. eigenvalues --   -0.24387  -0.23362  -0.20520
 Alpha virt. eigenvalues --   -0.07560  -0.06789  -0.05856  -0.04068  -0.02698
 Alpha virt. eigenvalues --   -0.02608  -0.01074  -0.00894  -0.00542  -0.00063
 Alpha virt. eigenvalues --   -0.00030   0.00393   0.00824   0.01114   0.01313

 Mulliken charges:
               1
     1  C   -0.207154
     2  C   -0.281452
     3  C    0.368314
     4  C   -0.081853
     5  C    0.226989
     6  C   -0.287136
     7  H    0.110840
     8  H    0.155700
     9  C   -0.081853
    10  C    0.226989
    11  C   -0.287136
    12  C   -0.207154
    13  C   -0.281452
    14  C    0.368314
    15  H    0.155700
    16  H    0.110840
    17  C   -0.161608
    18  C   -0.269587
    19  C   -0.269587
    20  C   -0.161608
    21  H    0.199367
    22  H    0.199367
    23  N    0.114090
    24  O   -0.084546
    25  C    0.283472
    26  C   -0.298960
    27  C   -0.426171
    28  H    0.150760
    29  C   -0.199292
    30  H    0.180806
    31  C   -0.326053
    32  H    0.156529
    33  C   -0.300644
    34  H    0.177426
    35  H    0.187845
    36  C    0.612317
    37  N    0.114090
    38  O   -0.084546
    39  C    0.283472
    40  C   -0.298960
    41  C   -0.426171
    42  H    0.150760
    43  C   -0.199292
    44  H    0.180806
    45  C   -0.326053
    46  H    0.156529
    47  C   -0.300644
    48  H    0.177426
    49  H    0.187845
    50  C    0.612317
 Sum of Mulliken charges =  -0.00000

 Dipole moment (field-independent basis, Debye):
    X=              0.0000    Y=              0.0000    Z=              0.0000  Tot=              0.0000
 Quadrupole moment (field-independent basis, Debye-Ang):
   XX=           -175.5712   YY=           -150.1484   ZZ=           -203.7254
   XY=             -8.3864   XZ=              0.0000   YZ=              0.0000

  Exact polarizability:     424.442      -5.464     731.945       0.000      -0.000     167.223
 Approx polarizability:     850.186       9.943     937.590       0.000       0.000     281.143

                      1                      2                      3
                      A                      A                      B
 Frequencies --     17.9956                31.3754                35.0319
 Red. masses --      6.5507                 3.6556                 3.8468
 Frc consts  --      0.0012                 0.0021                 0.0028
 IR Inten    --      0.2340                 0.0044                 0.0000

                      4                      5                      6
                      B                      B                      A
 Frequencies --     47.0754                51.4763                80.3495
 Red. masses --      7.0511                 5.7288                 5.7499
 Frc consts  --      0.0092                 0.0089                 0.0219
 IR Inten    --      0.0000                 0.3815                 2.3074

                      7                      8                      9
                      A                      A                      A
 Frequencies --     82.8545               121.9848               127.3844
 Red. masses --      5.5260                 5.9489                 6.7007
 Frc consts  --      0.0224                 0.0522                 0.0641
 IR Inten    --      0.0000                 0.0058                 1.0354

                     10                     11                     12
                      B                      A                      B
 Frequencies --    142.9629               181.6106               184.6549
 Red. masses --      5.3290                 7.3122                 8.5003
 Frc consts  --      0.0642                 0.1421                 0.1708
 IR Inten    --      0.0000                 0.0000                 0.0000

                     13                     14                     15
                      B                      A                      A
 Frequencies --    207.3179               234.0154               239.4292
 Red. masses --      5.8581                 5.1152                 6.1761
 Frc consts  --      0.1483                 0.1650                 0.2086
 IR Inten    --      1.1632                 0.0000                 0.5455

                     16                     17                     18
                      B                      B                      A
 Frequencies --    240.7768               255.4499               260.4711
 Red. masses --      4.8546                 6.1344                 5.2809
 Frc consts  --      0.1658                 0.2358                 0.2111
 IR Inten    --      0.0000                 1.2543                 0.6215

                     19                     20                     21
                      B                      B                      B
 Frequencies --    338.4505               353.2231               367.7776
 Red. masses --      6.0543                 6.5156                 5.5258
 Frc consts  --      0.4086                 0.4790                 0.4404
 IR Inten    --      0.0000                 0.0000                 2.3261

                     22                     23                     24
                      A                      B                      A
 Frequencies --    377.5477               410.2321               410.3424
 Red. masses --      7.2874                 2.8983                 2.9013
 Frc consts  --      0.6120                 0.2874                 0.2878
 IR Inten    --      4.0905                 0.0000                 0.0141

                     25                     26                     27
                      A                      A                      B
 Frequencies --    412.3286               420.6450               445.5748
 Red. masses --      8.7205                 8.8187                 7.8104
 Frc consts  --      0.8735                 0.9194                 0.9136
 IR Inten    --      0.0000                 0.0000                 4.9487

                     28                     29                     30
                      A                      A                      B
 Frequencies --    478.9512               490.3249               495.9692
 Red. masses --      7.2889                 3.7216                 3.7290
 Frc consts  --      0.9851                 0.5272                 0.5404
 IR Inten    --      0.0000                 4.4245                 0.0000

                     31                     32                     33
                      A                      A                      B
 Frequencies --    502.5716               513.9292               515.4187
 Red. masses --      8.4159                 3.9939                 7.8745
 Frc consts  --      1.2524                 0.6215                 1.2325
 IR Inten    --      0.0000                 0.6187                12.5318

                     34                     35                     36
                      A                      B                      B
 Frequencies --    549.7962               558.3659               612.2780
 Red. masses --      6.3551                 3.9811                10.7403
 Frc consts  --      1.1318                 0.7313                 2.3723
 IR Inten    --      0.0221                 0.0000                 0.3437

                     37                     38                     39
                      B                      B                      A
 Frequencies --    614.1869               631.6788               631.7755
 Red. masses --      5.7636                 6.4698                 6.4680
 Frc consts  --      1.2810                 1.5210                 1.5211
 IR Inten    --      0.0000                 0.1994                 0.0000

                     40                     41                     42
                      B                      A                      B
 Frequencies --    662.8117               679.4336               698.6652
 Red. masses --      8.1238                 6.3076                 3.4730
 Frc consts  --      2.1028                 1.7156                 0.9988
 IR Inten    --      2.2261                 0.0000                 0.0000

                     43                     44                     45
                      A                      B                      B
 Frequencies --    699.5628               699.7443               699.9955
 Red. masses --      2.1256                 6.7479                 3.4708
 Frc consts  --      0.6129                 1.9467                 1.0020
 IR Inten    --     50.9270                10.7017                 0.0000

                     46                     47                     48
                      B                      A                      A
 Frequencies --    708.3295               712.0416               715.9003
 Red. masses --      3.5685                 6.6272                 3.4169
 Frc consts  --      1.0549                 1.9796                 1.0318
 IR Inten    --      0.0000                 0.0000                83.8318

                     49                     50                     51
                      A                      B                      A
 Frequencies --    726.2651               726.4681               739.2960
 Red. masses --      3.0616                 4.1553                 5.3494
 Frc consts  --      0.9515                 1.2921                 1.7226
 IR Inten    --     26.9635                 0.0000                35.8574

                     52                     53                     54
                      A                      A                      B
 Frequencies --    764.4069               785.3668               786.4954
 Red. masses --      9.2466                 2.2529                 2.3715
 Frc consts  --      3.1833                 0.8187                 0.8643
 IR Inten    --      0.0000                16.0214                 0.0000

                     55                     56                     57
                      A                      B                      A
 Frequencies --    792.5988               802.1240               810.2346
 Red. masses --      6.0722                 1.4085                 1.7953
 Frc consts  --      2.2475                 0.5339                 0.6944
 IR Inten    --      0.0000                 0.0000                74.2337

                     58                     59                     60
                      B                      A                      B
 Frequencies --    843.4200               857.5971               857.6222
 Red. masses --      7.9613                 1.2495                 1.2496
 Frc consts  --      3.3367                 0.5415                 0.5415
 IR Inten    --     45.5030                 0.0120                 0.0000

                     61                     62                     63
                      A                      B                      A
 Frequencies --    917.1186               920.7765               941.8476
 Red. masses --      1.3881                 1.3850                 1.4074
 Frc consts  --      0.6879                 0.6918                 0.7356
 IR Inten    --      0.2294                 0.0000                 5.0893

                     64                     65                     66
                      B                      B                      A
 Frequencies --    941.8622               945.0423               946.3064
 Red. masses --      1.4076                12.5112                12.4276
 Frc consts  --      0.7357                 6.5834                 6.5569
 IR Inten    --      0.0000                15.9802                 0.0000

                     67                     68                     69
                      B                      A                      B
 Frequencies --    980.8720               991.1590               992.3373
 Red. masses --     10.4342                 1.3092                 1.3566
 Frc consts  --      5.9147                 0.7578                 0.7871
 IR Inten    --     34.2470                 0.5639                 0.0000

                     70                     71                     72
                      A                      B                      B
 Frequencies --    992.4924               992.9216              1004.1237
 Red. masses --      1.3665                 1.3201                 1.2889
 Frc consts  --      0.7931                 0.7668                 0.7657
 IR Inten    --      0.0113                 0.0000                 0.0000

                     73                     74                     75
                      A                      B                      A
 Frequencies --   1004.1889              1008.5829              1014.3510
 Red. masses --      1.2892                 7.6207                 6.2567
 Frc consts  --      0.7659                 4.5674                 3.7929
 IR Inten    --      0.0942                 2.0123                 0.0000

                     76                     77                     78
                      B                      A                      B
 Frequencies --   1014.6570              1039.0473              1042.2235
 Red. masses --      6.2560                 4.4932                 3.5018
 Frc consts  --      3.7947                 2.8581                 2.2411
 IR Inten    --      0.2909                 0.0000                58.9003

                     79                     80                     81
                      A                      B                      A
 Frequencies --   1062.9905              1073.4287              1081.6013
 Red. masses --      2.8479                 2.8577                 5.6484
 Frc consts  --      1.8960                 1.9400                 3.8932
 IR Inten    --      0.0000                29.6393                 0.0000

                     82                     83                     84
                      A                      A                      B
 Frequencies --   1089.3104              1104.4609              1111.0343
 Red. masses --      2.2092                 2.3390                 1.6934
 Frc consts  --      1.5445                 1.6811                 1.2316
 IR Inten    --      0.0000                 0.0000                19.4800

                     85                     86                     87
                      B                      A                      B
 Frequencies --   1113.7497              1119.9327              1154.6209
 Red. masses --      1.6394                 2.6260                 2.6277
 Frc consts  --      1.1981                 1.9406                 2.0640
 IR Inten    --      4.1132                 0.0000                49.5302

                     88                     89                     90
                      B                      A                      B
 Frequencies --   1192.3998              1192.6582              1196.8693
 Red. masses --      1.1508                 1.1264                 1.4221
 Frc consts  --      0.9641                 0.9440                 1.2003
 IR Inten    --      0.5577                 0.0000                20.7798

                     91                     92                     93
                      A                      B                      A
 Frequencies --   1200.3083              1210.6426              1211.4940
 Red. masses --      1.2476                 1.7320                 1.1436
 Frc consts  --      1.0590                 1.4956                 0.9889
 IR Inten    --      0.0000                 1.0753                 0.0000

                     94                     95                     96
                      B                      A                      B
 Frequencies --   1212.2388              1275.1815              1283.0080
 Red. masses --      1.9387                 3.1686                 4.4591
 Frc consts  --      1.6786                 3.0357                 4.3247
 IR Inten    --     30.3099                 0.0000                24.7694

                     97                     98                     99
                      A                      B                      A
 Frequencies --   1290.7273              1305.3303              1307.9285
 Red. masses --      2.8097                 6.4463                 2.9066
 Frc consts  --      2.7579                 6.4715                 2.9296
 IR Inten    --      0.0000                 9.5328                 0.0000

                    100                    101                    102
                      B                      A                      B
 Frequencies --   1333.6547              1338.3947              1348.0829
 Red. masses --      4.2237                 4.0496                 5.7243
 Frc consts  --      4.4262                 4.2740                 6.1293
 IR Inten    --     34.9085                 0.0000                27.9558

                    103                    104                    105
                      A                      B                      A
 Frequencies --   1358.0541              1359.7469              1368.8108
 Red. masses --      1.6893                 1.5606                 6.0540
 Frc consts  --      1.8356                 1.7001                 6.6832
 IR Inten    --      0.0000                 6.3888                 0.0000

                    106                    107                    108
                      A                      A                      B
 Frequencies --   1382.5694              1408.0126              1427.3928
 Red. masses --      8.9708                 5.4374                 2.6704
 Frc consts  --     10.1032                 6.3512                 3.2057
 IR Inten    --      0.0000                 0.0000                 7.5598

                    109                    110                    111
                      A                      B                      B
 Frequencies --   1430.6993              1458.7256              1477.9325
 Red. masses --      3.6931                 2.2353                 2.2775
 Frc consts  --      4.4539                 2.8024                 2.9310
 IR Inten    --      0.0000                28.6097                34.6734

                    112                    113                    114
                      A                      B                      A
 Frequencies --   1478.1747              1510.1963              1517.2769
 Red. masses --      2.2918                 3.4293                 2.3137
 Frc consts  --      2.9504                 4.6081                 3.1382
 IR Inten    --      0.0000                90.2816                 0.0000

                    115                    116                    117
                      B                      B                      A
 Frequencies --   1525.8562              1529.3241              1544.2197
 Red. masses --      4.2443                 5.5385                 4.2081
 Frc consts  --      5.8222                 7.6320                 5.9123
 IR Inten    --     30.8477                 8.6482                 0.0000

                    118                    119                    120
                      A                      A                      B
 Frequencies --   1576.4580              1583.5318              1590.0673
 Red. masses --      4.7710                 7.3667                 7.5886
 Frc consts  --      6.9859                10.8837                11.3043
 IR Inten    --      0.0000                 0.0000                89.7129

                    121                    122                    123
                      A                      B                      A
 Frequencies --   1617.1408              1623.0808              1629.5220
 Red. masses --      6.1070                 6.1702                 7.3591
 Frc consts  --      9.4097                 9.5769                11.5131
 IR Inten    --      0.0000                11.6374                 0.0000

                    124                    125                    126
                      B                      B                      A
 Frequencies --   1632.3319              1643.1182              1645.4860
 Red. masses --      8.3629                 6.0015                 5.5403
 Frc consts  --     13.1288                 9.5465                 8.8384
 IR Inten    --      6.5751                13.8072                 0.0000

                    127                    128                    129
                      B                      A                      B
 Frequencies --   1646.3775              1673.9340              3164.0001
 Red. masses --      5.9610                 9.6928                 1.0860
 Frc consts  --      9.5199                16.0021                 6.4056
 IR Inten    --     20.4789                 0.0000                 1.9928

                    130                    131                    132
                      A                      B                      A
 Frequencies --   3164.0080              3170.3810              3170.5933
 Red. masses --      1.0860                 1.0871                 1.0872
 Frc consts  --      6.4056                 6.4377                 6.4393
 IR Inten    --      0.0000                16.5482                 0.0000

                    133                    134                    135
                      A                      B                      B
 Frequencies --   3174.7029              3174.7045              3186.1852
 Red. masses --      1.0895                 1.0895                 1.0939
 Frc consts  --      6.4699                 6.4699                 6.5430
 IR Inten    --      0.0000                19.6546                45.4483

                    136                    137                    138
                      A                      A                      B
 Frequencies --   3186.2068              3189.0718              3189.1068
 Red. masses --      1.0939                 1.0914                 1.0915
 Frc consts  --      6.5430                 6.5399                 6.5403
 IR Inten    --      0.0000                 0.0000                 6.8764

                    139                    140                    141
                      B                      A                      A
 Frequencies --   3196.8323              3196.9286              3198.9548
 Red. masses --      1.0959                 1.0958                 1.0932
 Frc consts  --      6.5986                 6.5985                 6.5915
 IR Inten    --     15.1311                 0.0000                 0.0000

                    142                    143                    144
                      B                      B                      A
 Frequencies --   3198.9562              3200.8281              3200.8399
 Red. masses --      1.0933                 1.0958                 1.0958
 Frc consts  --      6.5915                 6.6145                 6.6146
 IR Inten    --     11.3100                12.5925                 0.0000

 - Thermochemistry -
 -------------------
 Temperature   298.150 Kelvin.  Pressure   1.00000 Atm.
 Atom     1 has atomic number  6 and mass  12.00000

 Molecular mass:   436.12118 amu.
 Principal axes and moments of inertia in atomic units:
                           1         2         3
     Eigenvalues --  4208.51679********************
           X           -0.03715   0.99931   0.00000
           Y            0.99931   0.03715   0.00000
           Z            0.00000   0.00000   1.00000
 This molecule is an asymmetric top.
 Rotational symmetry number  2.
 Warning -- assumption of classical behavior for rotation
           may cause significant error
 Rotational temperatures (Kelvin)      0.02058     0.00238     0.00213
 Rotational constants (GHZ):           0.42883     0.04955     0.04442
 Zero-point vibrational energy     990162.6 (Joules/Mol)
                                  236.65455 (Kcal/Mol)
 Warning -- explicit consideration of  37 degrees of freedom as
           vibrations may cause significant error
 Vibrational temperatures:     25.89    45.14    50.40    67.73    74.06
          (Kelvin)            115.60   119.21   175.51   183.28   205.69
                              261.30   265.68   298.28   336.70   344.49
                              346.42   367.54   374.76   486.95   508.21
                              529.15   543.21   590.23   590.39   593.25
                              605.21   641.08   689.10   705.47   713.59
                              723.09   739.43   741.57   791.03   803.36
                              880.93   883.68   908.84   908.98   953.64
                              977.55  1005.22  1006.51  1006.78  1007.14
                             1019.13  1024.47  1030.02  1044.93  1045.23
                             1063.68  1099.81  1129.97  1131.59  1140.37
                             1154.08  1165.75  1213.49  1233.89  1233.93
                             1319.53  1324.79  1355.11  1355.13  1359.71
                             1361.52  1411.26  1426.06  1427.75  1427.98
                             1428.59  1444.71  1444.80  1451.13  1459.42
                             1459.87  1494.96  1499.53  1529.41  1544.42
                             1556.18  1567.27  1589.07  1598.53  1602.44
                             1611.33  1661.24  1715.60  1715.97  1722.03
                             1726.98  1741.84  1743.07  1744.14  1834.70
                             1845.96  1857.07  1878.08  1881.82  1918.83
                             1925.65  1939.59  1953.94  1956.37  1969.41
                             1989.21  2025.82  2053.70  2058.46  2098.78
                             2126.42  2126.76  2172.84  2183.02  2195.37
                             2200.36  2221.79  2268.17  2278.35  2287.75
                             2326.70  2335.25  2344.52  2348.56  2364.08
                             2367.49  2368.77  2408.42  4552.29  4552.30
                             4561.47  4561.78  4567.69  4567.69  4584.21
                             4584.24  4588.36  4588.41  4599.53  4599.67
                             4602.58  4602.58  4605.28  4605.29

 Zero-point correction=                           0.377133 (Hartree/Particle)
 Thermal correction to Energy=                    0.400494
 Thermal correction to Enthalpy=                  0.401439
 Thermal correction to Gibbs Free Energy=         0.323592
 Sum of electronic and zero-point Energies=          -1412.865802
 Sum of electronic and thermal Energies=             -1412.842441
 Sum of electronic and thermal Enthalpies=           -1412.841497
 Sum of electronic and thermal Free Energies=        -1412.919343

                     E (Thermal)             CV                S
                      KCal/Mol        Cal/Mol-Kelvin    Cal/Mol-Kelvin
 Total                  251.314             96.710            163.842
 Electronic               0.000              0.000              0.000
 Translational            0.889              2.981             44.108
 Rotational               0.889              2.981             35.697
 Vibrational            249.537             90.749             84.037
 Vibration     1          0.593              1.986              6.844
 Vibration     2          0.594              1.983              5.741
 Vibration     3          0.594              1.982              5.522
 Vibration     4          0.595              1.979              4.937
 Vibration     5          0.596              1.977              4.760
 Vibration     6          0.600              1.962              3.882
 Vibration     7          0.600              1.961              3.822
 Vibration     8          0.609              1.931              3.069
 Vibration     9          0.611              1.926              2.985
 Vibration    10          0.616              1.910              2.764
 Vibration    11          0.630              1.865              2.312
 Vibration    12          0.631              1.861              2.281
 Vibration    13          0.641              1.829              2.067
 Vibration    14          0.654              1.789              1.848
 Vibration    15          0.657              1.780              1.807
 Vibration    16          0.658              1.778              1.797
 Vibration    17          0.666              1.754              1.693
 Vibration    18          0.669              1.745              1.659
 Vibration    19          0.719              1.599              1.219
 Vibration    20          0.729              1.569              1.152
 Vibration    21          0.740              1.538              1.089
 Vibration    22          0.748              1.518              1.049
 Vibration    23          0.774              1.448              0.926
 Vibration    24          0.775              1.448              0.925
 Vibration    25          0.776              1.443              0.918
 Vibration    26          0.783              1.425              0.890
 Vibration    27          0.805              1.371              0.809
 Vibration    28          0.835              1.297              0.713
 Vibration    29          0.846              1.271              0.683
 Vibration    30          0.852              1.259              0.668
 Vibration    31          0.858              1.244              0.652
 Vibration    32          0.869              1.219              0.624
 Vibration    33          0.870              1.216              0.621
 Vibration    34          0.905              1.140              0.545
 Vibration    35          0.914              1.121              0.527
 Vibration    36          0.972              1.006              0.429
 Vibration    37          0.974              1.002              0.426

 Optimization completed.
    -- Stationary point found.
 Normal termination of Gaussian 16 at Fri Jul 31 22:07:25 2020.
