 Gaussian 16, Revision C.01,
 Gaussian 16:  ES64L-G16RevC.01  3-Jul-2019

 --------------------------------------------------------------------
 #P B3LYP/6-311++G(d,p) EmpiricalDispersion=GD3 freq(noraman) SCF=YQC
 --------------------------------------------------------------------

 --------------------------------------------------
 Restart from BiPhenyl_BoronicAcid_Borosilicate.log
 --------------------------------------------------
 Symbolic Z-matrix:
 Charge =  0 Multiplicity = 1

                         Standard orientation:
 ---------------------------------------------------------------------
 Center     Atomic      Atomic             Coordinates (Angstroms)
 Number     Number       Type             X           Y           Z
 ---------------------------------------------------------------------
      1          6           0        0.000065   -3.575417    0.000030
      2          6           0       -0.413219   -2.850134    1.129077
      3          6           0       -0.413109   -1.460916    1.132244
      4          6           0        0.000018   -0.741001    0.000041
      5          6           0        0.413185   -1.460895   -1.132162
      6          6           0        0.413342   -2.850111   -1.129006
      7          6           0       -0.000018    0.741001    0.000041
      8          6           0       -0.413185    1.460895   -1.132162
      9          6           0       -0.413342    2.850111   -1.129006
     10          6           0       -0.000065    3.575417    0.000030
     11          6           0        0.413219    2.850134    1.129077
     12          6           0        0.413109    1.460916    1.132244
     13          1           0       -0.745344    3.388790   -2.009593
     14          1           0        0.745344   -3.388790   -2.009593
     15          1           0        0.745183    3.388825    2.009670
     16          1           0       -0.745183   -3.388825    2.009670
     17          1           0       -0.759617    0.924355   -2.008167
     18          1           0        0.759617   -0.924355   -2.008167
     19          1           0       -0.759555   -0.924398    2.008256
     20          1           0        0.759555    0.924398    2.008256
     21          5           0        0.000018   -5.127311    0.000005
     22          8           0        0.414755   -5.805215   -1.125082
     23          8           0       -0.414754   -5.805238    1.125043
     24         14           0        0.606611   -7.359654   -1.637789
     25         14           0       -0.607241   -7.359587    1.637785
     26          8           0        1.681839   -8.141117   -0.653245
     27          8           0       -0.849579   -8.143010   -1.592535
     28          1           0        1.113354   -7.362761   -3.003378
     29          8           0       -1.682815   -8.140582    0.653244
     30          8           0        0.848627   -8.143539    1.592551
     31          1           0       -1.114008   -7.362466    3.003366
     32          5           0        1.802487   -8.471095    0.668632
     33          1           0        2.769000   -9.063359    1.026564
     34          5           0       -1.803884   -8.469774   -0.668799
     35          1           0       -2.771126   -9.060676   -1.027006
     36          5           0       -0.000018    5.127311    0.000005
     37          8           0       -0.414755    5.805215   -1.125082
     38          8           0        0.414754    5.805238    1.125043
     39         14           0       -0.606611    7.359654   -1.637789
     40         14           0        0.607241    7.359587    1.637785
     41          8           0       -1.681839    8.141117   -0.653245
     42          8           0        0.849579    8.143010   -1.592535
     43          1           0       -1.113354    7.362761   -3.003378
     44          8           0        1.682815    8.140582    0.653244
     45          8           0       -0.848627    8.143539    1.592551
     46          1           0        1.114008    7.362466    3.003366
     47          5           0       -1.802487    8.471095    0.668632
     48          1           0       -2.769000    9.063359    1.026564
     49          5           0        1.803884    8.469774   -0.668799
     50          1           0        2.771126    9.060676   -1.027006
 ---------------------------------------------------------------------

 SCF Done:  E(RB3LYP) =  -2678.48309938     a.u. after    7 cycles
 SCF Done:  E(RB3LYP) =  -2678.48311687     A.U. after    9 cycles

 The electronic state is 1-A.
 Alpha  occ. eigenvalues --  -66.19081 -66.19081 -66.19081 -66.19081 -19.15162
 Alpha  occ. eigenvalues --  -19.15162 -19.15162 -19.15162 -19.15161 -19.15161
 Alpha  occ. eigenvalues --  -19.15161 -19.15161 -19.14934 -19.14933 -19.14933
 Alpha  occ. eigenvalues --  -19.14933 -10.20209 -10.20178 -10.18710 -10.18710
 Alpha  occ. eigenvalues --  -10.18710 -10.18710 -10.18556 -10.18556 -10.18556
 Alpha  occ. eigenvalues --  -10.18556 -10.16979 -10.16979  -6.81977  -6.81977
 Alpha  occ. eigenvalues --   -6.81976  -6.81976  -6.81859  -6.81859  -5.35584
 Alpha  occ. eigenvalues --   -5.35584  -5.35583  -5.35583  -3.71571  -3.71571
 Alpha  occ. eigenvalues --   -3.71571  -3.71571  -3.71568  -3.71568  -3.71568
 Alpha  occ. eigenvalues --   -3.71568  -3.71230  -3.71230  -3.71229  -3.71229
 Alpha  occ. eigenvalues --   -1.07354  -1.07354  -1.04378  -1.04378  -1.04283
 Alpha  occ. eigenvalues --   -1.04283  -1.03919  -1.03919  -1.01028  -1.01028
 Alpha  occ. eigenvalues --   -1.00919  -1.00919  -0.88322  -0.85904  -0.79029
 Alpha  occ. eigenvalues --   -0.76364  -0.75604  -0.73530  -0.66083  -0.65385
 Alpha  occ. eigenvalues --   -0.63541  -0.63492  -0.62562  -0.61908  -0.60261
 Alpha  occ. eigenvalues --   -0.59828  -0.58694  -0.58694  -0.58092  -0.57625
 Alpha  occ. eigenvalues --   -0.54388  -0.54293  -0.54293  -0.54179  -0.54175
 Alpha  occ. eigenvalues --   -0.51069  -0.49866  -0.48816  -0.47599  -0.47581
 Alpha  occ. eigenvalues --   -0.46184  -0.46182  -0.45705  -0.45580  -0.45129
 Alpha  occ. eigenvalues --   -0.44916  -0.44370  -0.44369  -0.43965  -0.43833
 Alpha  occ. eigenvalues --   -0.43442  -0.43259  -0.42841  -0.42209  -0.41118
 Alpha  occ. eigenvalues --   -0.40631  -0.40439  -0.40357  -0.39139  -0.39101
 Alpha  occ. eigenvalues --   -0.39095  -0.39092  -0.39092  -0.38807  -0.37023
 Alpha  occ. eigenvalues --   -0.36907  -0.36320  -0.36055  -0.36032  -0.35738
 Alpha  occ. eigenvalues --   -0.34933  -0.34933  -0.34924  -0.34773  -0.34443
 Alpha  occ. eigenvalues --   -0.34211  -0.34211  -0.34186  -0.34161  -0.33891
 Alpha  occ. eigenvalues --   -0.33373  -0.29133  -0.26847  -0.26831  -0.24626
 Alpha virt. eigenvalues --   -0.07503  -0.03961  -0.02633  -0.02413  -0.02402
 Alpha virt. eigenvalues --   -0.02349  -0.01230  -0.00626  -0.00547  -0.00119
 Alpha virt. eigenvalues --    0.00173   0.00325   0.00676   0.00873   0.00984

 Mulliken charges:
               1
     1  C   -0.408276
     2  C   -0.319409
     3  C   -0.365542
     4  C    0.864308
     5  C   -0.365603
     6  C   -0.319384
     7  C    0.864308
     8  C   -0.365603
     9  C   -0.319384
    10  C   -0.408276
    11  C   -0.319409
    12  C   -0.365542
    13  H    0.199629
    14  H    0.199629
    15  H    0.199639
    16  H    0.199639
    17  H    0.164263
    18  H    0.164263
    19  H    0.164257
    20  H    0.164257
    21  B    0.861742
    22  O   -0.440030
    23  O   -0.440152
    24  Si   0.306373
    25  Si   0.306378
    26  O   -0.282136
    27  O   -0.281618
    28  H   -0.215192
    29  O   -0.282034
    30  O   -0.281658
    31  H   -0.215174
    32  B    0.539731
    33  H    0.035200
    34  B    0.539514
    35  H    0.035175
    36  B    0.861742
    37  O   -0.440030
    38  O   -0.440152
    39  Si   0.306373
    40  Si   0.306378
    41  O   -0.282136
    42  O   -0.281618
    43  H   -0.215192
    44  O   -0.282034
    45  O   -0.281658
    46  H   -0.215174
    47  B    0.539731
    48  H    0.035200
    49  B    0.539514
    50  H    0.035175
 Sum of Mulliken charges =  -0.00000

 Dipole moment (field-independent basis, Debye):
    X=             -0.0000    Y=              0.0000    Z=             -0.0002  Tot=              0.0002
 Quadrupole moment (field-independent basis, Debye-Ang):
   XX=           -229.6470   YY=           -238.9435   ZZ=           -213.8257
   XY=              0.0031   XZ=             -0.0000   YZ=             -0.0000

  Exact polarizability:     237.055      -0.004     502.318      -0.000       0.000     297.582
 Approx polarizability:     346.144      -0.008     567.554      -0.000       0.000     476.205

                      1                      2                      3
                      A                      B                      A
 Frequencies --     10.6575                11.0418                18.0305
 Red. masses --      7.8868                 7.9159                 8.0089
 Frc consts  --      0.0005                 0.0006                 0.0015
 IR Inten    --      0.0000                 0.0075                 0.0140

                      4                      5                      6
                      A                      B                      B
 Frequencies --     29.7033                39.1123                42.6165
 Red. masses --      8.1015                 4.2007                 8.0577
 Frc consts  --      0.0042                 0.0038                 0.0086
 IR Inten    --      0.0067                 0.0000                 0.0128

                      7                      8                      9
                      B                      A                      A
 Frequencies --     56.7721                72.5658                78.8875
 Red. masses --      7.7114                 6.3924                 7.4139
 Frc consts  --      0.0146                 0.0198                 0.0272
 IR Inten    --      0.0346                 0.0000                 0.0346

                     10                     11                     12
                      B                      A                      A
 Frequencies --     82.9195                86.8124                93.7427
 Red. masses --     13.3985                 8.1730                 8.7864
 Frc consts  --      0.0543                 0.0363                 0.0455
 IR Inten    --      0.0001                 0.0000                 0.0000

                     13                     14                     15
                      B                      A                      A
 Frequencies --     99.1274               102.4134               109.7568
 Red. masses --     13.6560                 8.3447                11.4966
 Frc consts  --      0.0791                 0.0516                 0.0816
 IR Inten    --      0.0001                 0.0000                 0.0259

                     16                     17                     18
                      B                      A                      B
 Frequencies --    115.1923               146.7402               149.1997
 Red. masses --     15.6122                 7.4313                 3.1129
 Frc consts  --      0.1221                 0.0943                 0.0408
 IR Inten    --      0.0032                 0.2629                 4.1488

                     19                     20                     21
                      B                      A                      A
 Frequencies --    166.8647               169.0880               199.4245
 Red. masses --      5.2548                 3.0408                 3.0646
 Frc consts  --      0.0862                 0.0512                 0.0718
 IR Inten    --      0.9016                 0.0000                 0.0969

                     22                     23                     24
                      B                      B                      B
 Frequencies --    208.4686               234.4847               285.5172
 Red. masses --      3.3758                 6.1298                 8.7586
 Frc consts  --      0.0864                 0.1986                 0.4207
 IR Inten    --      0.3525                 3.5168                 0.4280

                     25                     26                     27
                      A                      A                      B
 Frequencies --    287.8900               320.1364               324.1803
 Red. masses --      6.3543                 8.7300                13.1246
 Frc consts  --      0.3103                 0.5271                 0.8127
 IR Inten    --      0.4668                 0.2878                 0.0057

                     28                     29                     30
                      A                      A                      B
 Frequencies --    324.2108               330.6743               334.5564
 Red. masses --     13.1367                10.9259                 7.1772
 Frc consts  --      0.8136                 0.7039                 0.4733
 IR Inten    --      0.0000                 0.0000                23.8117

                     31                     32                     33
                      B                      B                      A
 Frequencies --    346.3084               350.0456               351.9444
 Red. masses --      8.7803                 7.7093                 7.2318
 Frc consts  --      0.6204                 0.5566                 0.5278
 IR Inten    --     13.4454                18.0517                 6.1132

                     34                     35                     36
                      A                      A                      B
 Frequencies --    363.6969               373.4403               396.0527
 Red. masses --      5.0292                 5.9508                 6.7072
 Frc consts  --      0.3919                 0.4890                 0.6199
 IR Inten    --      0.0000                 0.5882                97.7068

                     37                     38                     39
                      B                      B                      A
 Frequencies --    413.7623               414.5354               420.2190
 Red. masses --      2.8891                 4.3591                 2.9294
 Frc consts  --      0.2914                 0.4413                 0.3048
 IR Inten    --      0.9389                 0.0027                 0.0000

                     40                     41                     42
                      B                      A                      A
 Frequencies --    446.8096               447.0683               460.1918
 Red. masses --     13.5659                13.9849                 7.4821
 Frc consts  --      1.5957                 1.6469                 0.9336
 IR Inten    --     34.2789               251.3692                 0.0000

                     43                     44                     45
                      B                      A                      B
 Frequencies --    515.1252               556.1339               570.1469
 Red. masses --      3.7694                 3.2170                 8.2484
 Frc consts  --      0.5893                 0.5862                 1.5798
 IR Inten    --      2.1556                 0.3228                93.2095

                     46                     47                     48
                      A                      B                      A
 Frequencies --    570.2679               572.5306               577.2272
 Red. masses --      8.0737                 8.1487                 7.6315
 Frc consts  --      1.5470                 1.5738                 1.4981
 IR Inten    --     13.3786               193.2510                 0.0000

                     49                     50                     51
                      B                      A                      B
 Frequencies --    595.7660               600.0145               642.9552
 Red. masses --     14.7138                12.9855                 7.1113
 Frc consts  --      3.0770                 2.7544                 1.7320
 IR Inten    --      7.8634                 0.0000                 0.4140

                     52                     53                     54
                      A                      B                      B
 Frequencies --    654.9534               667.5411               673.4883
 Red. masses --      6.9713                 7.1922                 4.8821
 Frc consts  --      1.7619                 1.8883                 1.3047
 IR Inten    --      0.3662                24.7435                67.1882

                     55                     56                     57
                      A                      A                      B
 Frequencies --    677.2518               711.0937               711.1387
 Red. masses --      3.8655                 5.4289                 5.4110
 Frc consts  --      1.0446                 1.6174                 1.6123
 IR Inten    --     11.3697                44.6750                 4.9181

                     58                     59                     60
                      A                      B                      B
 Frequencies --    738.8200               740.8154               758.3853
 Red. masses --      6.7018                 5.7749                 3.7839
 Frc consts  --      2.1554                 1.8673                 1.2822
 IR Inten    --      0.0000                 1.7203                 0.1606

                     61                     62                     63
                      A                      A                      B
 Frequencies --    760.8730               760.9053               765.4777
 Red. masses --      3.4328                 5.1474                 3.5940
 Frc consts  --      1.1709                 1.7559                 1.2408
 IR Inten    --      1.4679                 0.0021                37.4937

                     64                     65                     66
                      A                      B                      A
 Frequencies --    773.6671               773.6680               782.3595
 Red. masses --      4.5532                 4.5533                 4.1282
 Frc consts  --      1.6057                 1.6058                 1.4888
 IR Inten    --      0.0000                 0.0000                 1.0521

                     67                     68                     69
                      B                      A                      A
 Frequencies --    829.5106               829.5171               831.2519
 Red. masses --      1.1420                 1.1419                 1.1310
 Frc consts  --      0.4630                 0.4630                 0.4604
 IR Inten    --      0.0022                 0.0000                 0.0023

                     70                     71                     72
                      B                      B                      A
 Frequencies --    831.2559               847.1229               861.1073
 Red. masses --      1.1318                 1.5835                11.3488
 Frc consts  --      0.4608                 0.6695                 4.9581
 IR Inten    --      0.0061                29.4486                 3.5264

                     73                     74                     75
                      B                      B                      A
 Frequencies --    862.2216               863.5621               864.5698
 Red. masses --     11.2097                 1.2672                 1.2998
 Frc consts  --      4.9100                 0.5568                 0.5724
 IR Inten    --      2.0148                46.5455                 0.0000

                     76                     77                     78
                      B                      A                      A
 Frequencies --    865.4780               872.3350               882.8171
 Red. masses --      1.4548                 1.4227                 1.7839
 Frc consts  --      0.6420                 0.6378                 0.8192
 IR Inten    --    713.8898                 0.0000                 0.1776

                     79                     80                     81
                      B                      A                      B
 Frequencies --    885.3625               885.3941               906.8480
 Red. masses --      1.4096                 1.4405                 3.8308
 Frc consts  --      0.6510                 0.6653                 1.8561
 IR Inten    --    594.2779                87.5082               533.0773

                     82                     83                     84
                      A                      A                      B
 Frequencies --    910.3029               916.4584               916.4983
 Red. masses --      3.7268                 1.6562                 1.6565
 Frc consts  --      1.8195                 0.8196                 0.8198
 IR Inten    --      0.0000                 6.2305                47.9859

                     85                     86                     87
                      B                      A                      B
 Frequencies --    923.4875               923.8589               988.8071
 Red. masses --      1.7344                 1.7777                 1.3204
 Frc consts  --      0.8715                 0.8940                 0.7606
 IR Inten    --    255.7228                 0.0000                 0.0213

                     88                     89                     90
                      A                      B                      A
 Frequencies --    992.2528              1000.8230              1001.9518
 Red. masses --      1.3476                 1.3732                 1.3711
 Frc consts  --      0.7817                 0.8104                 0.8110
 IR Inten    --      0.0076                 0.8757                 0.0000

                     91                     92                     93
                      B                      A                      B
 Frequencies --   1022.1467              1040.6986              1051.9657
 Red. masses --      6.7617                 2.9544                 2.5423
 Frc consts  --      4.1623                 1.8852                 1.6576
 IR Inten    --     46.8893                 0.0000                46.7339

                     94                     95                     96
                      B                      A                      B
 Frequencies --   1144.1175              1144.7199              1145.3167
 Red. masses --      1.3995                 1.4824                 1.2290
 Frc consts  --      1.0794                 1.1445                 0.9499
 IR Inten    --      1.2641                 9.2849                 0.3546

                     97                     98                     99
                      A                      B                      A
 Frequencies --   1145.4012              1147.7728              1147.7730
 Red. masses --      1.2772                 1.2759                 1.2759
 Frc consts  --      0.9873                 0.9903                 0.9903
 IR Inten    --      6.5657                 0.0001                 0.0000

                    100                    101                    102
                      B                      A                      B
 Frequencies --   1153.2798              1156.4144              1218.6863
 Red. masses --      4.9283                 5.8803                 1.1651
 Frc consts  --      3.8621                 4.6332                 1.0195
 IR Inten    --   1039.2661                 0.0000               157.6687

                    103                    104                    105
                      A                      A                      B
 Frequencies --   1225.9045              1231.6926              1231.9304
 Red. masses --      1.2606                10.2820                10.2903
 Frc consts  --      1.1162                 9.1903                 9.2014
 IR Inten    --      0.0000               149.4777              1108.6474

                    106                    107                    108
                      B                      A                      A
 Frequencies --   1233.2950              1235.6456              1256.5848
 Red. masses --      8.0896                 5.6808                 6.6698
 Frc consts  --      7.2495                 5.1103                 6.2050
 IR Inten    --    912.3127                 0.0000                 0.4939

                    109                    110                    111
                      B                      A                      B
 Frequencies --   1256.8336              1271.4409              1271.4419
 Red. masses --      7.1567                 6.6550                 6.6551
 Frc consts  --      6.6606                 6.3386                 6.3387
 IR Inten    --      0.0952                 0.0000                 0.0045

                    112                    113                    114
                      A                      A                      B
 Frequencies --   1298.5439              1306.7799              1318.6022
 Red. masses --      5.4984                 3.5304                 5.2378
 Frc consts  --      5.4626                 3.5521                 5.3657
 IR Inten    --      8.2368                 0.0000                 2.4414

                    115                    116                    117
                      B                      A                      A
 Frequencies --   1321.2993              1336.1963              1338.1451
 Red. masses --      5.7885                 1.4167                 6.1829
 Frc consts  --      5.9542                 1.4903                 6.5231
 IR Inten    --   2757.7501                 1.4094                 0.0001

                    118                    119                    120
                      B                      B                      A
 Frequencies --   1340.9744              1414.8063              1415.5980
 Red. masses --      1.5132                 8.0034                 5.8565
 Frc consts  --      1.6032                 9.4388                 6.9146
 IR Inten    --      1.6092               333.9124              1945.6636

                    121                    122                    123
                      A                      B                      B
 Frequencies --   1423.3148              1439.3272              1530.5548
 Red. masses --      3.1139                 2.8931                 2.2760
 Frc consts  --      3.7167                 3.5313                 3.1414
 IR Inten    --    802.0101                49.6959                30.8098

                    124                    125                    126
                      A                      A                      B
 Frequencies --   1552.8858              1570.2942              1596.3169
 Red. masses --      2.6775                 5.5115                 6.5951
 Frc consts  --      3.8041                 8.0072                 9.9018
 IR Inten    --      0.0000                31.7159                 2.2137

                    127                    128                    129
                      A                      B                      B
 Frequencies --   1645.8470              1647.1731              2387.1824
 Red. masses --      5.4586                 5.5836                 1.0421
 Frc consts  --      8.7119                 8.9256                 3.4990
 IR Inten    --      0.0000               245.1319                37.7132

                    130                    131                    132
                      A                      B                      A
 Frequencies --   2387.2290              2388.4811              2388.5526
 Red. masses --      1.0421                 1.0427                 1.0427
 Frc consts  --      3.4991                 3.5047                 3.5049
 IR Inten    --    270.8013                 4.9823                 0.0002

                    133                    134                    135
                      A                      B                      B
 Frequencies --   2655.6046              2655.6433              2658.6201
 Red. masses --      1.0944                 1.0944                 1.0958
 Frc consts  --      4.5472                 4.5474                 4.5633
 IR Inten    --     64.2667               471.8378               279.9543

                    136                    137                    138
                      A                      B                      B
 Frequencies --   2658.8171              3163.8580              3164.0817
 Red. masses --      1.0958                 1.0876                 1.0871
 Frc consts  --      4.5643                 6.4146                 6.4124
 IR Inten    --      0.0003                22.0889                 0.1545

                    139                    140                    141
                      A                      A                      B
 Frequencies --   3167.0165              3167.7012              3180.6810
 Red. masses --      1.0875                 1.0867                 1.0938
 Frc consts  --      6.4268                 6.4247                 6.5200
 IR Inten    --      0.0000                 0.6457                 5.5423

                    142                    143                    144
                      B                      A                      A
 Frequencies --   3182.8959              3183.0677              3185.7393
 Red. masses --      1.0949                 1.0933                 1.0949
 Frc consts  --      6.5356                 6.5268                 6.5473
 IR Inten    --      0.0332                31.8029                 0.0001

 - Thermochemistry -
 -------------------
 Temperature   298.150 Kelvin.  Pressure   1.00000 Atm.
 Atom     1 has atomic number  6 and mass  12.00000

 Molecular mass:   530.02772 amu.
 Principal axes and moments of inertia in atomic units:
                           1         2         3
     Eigenvalues --  4520.24005********************
           X            0.00004   0.00000   1.00000
           Y            1.00000   0.00000  -0.00004
           Z            0.00000   1.00000   0.00000
 This molecule is an asymmetric top.
 Rotational symmetry number  2.
 Warning -- assumption of classical behavior for rotation
           may cause significant error
 Rotational temperatures (Kelvin)      0.01916     0.00109     0.00107
 Rotational constants (GHZ):           0.39926     0.02263     0.02233
 Zero-point vibrational energy     847932.0 (Joules/Mol)
                                  202.66060 (Kcal/Mol)
 Warning -- explicit consideration of  50 degrees of freedom as
           vibrations may cause significant error
 Vibrational temperatures:     15.33    15.89    25.94    42.74    56.27
          (Kelvin)             61.32    81.68   104.41   113.50   119.30
                              124.90   134.87   142.62   147.35   157.92
                              165.74   211.13   214.67   240.08   243.28
                              286.93   299.94   337.37   410.80   414.21
                              460.60   466.42   466.47   475.77   481.35
                              498.26   503.64   506.37   523.28   537.30
                              569.83   595.31   596.42   604.60   642.86
                              643.23   662.11   741.15   800.15   820.31
                              820.49   823.74   830.50   857.17   863.29
                              925.07   942.33   960.44   969.00   974.41
                             1023.11  1023.17  1063.00  1065.87  1091.15
                             1094.73  1094.77  1101.35  1113.13  1113.14
                             1125.64  1193.48  1193.49  1195.99  1195.99
                             1218.82  1238.94  1240.54  1242.47  1243.92
                             1245.23  1255.10  1270.18  1273.84  1273.88
                             1304.75  1309.72  1318.58  1318.64  1328.69
                             1329.23  1422.67  1427.63  1439.96  1441.59
                             1470.64  1497.33  1513.54  1646.13  1647.00
                             1647.86  1647.98  1651.39  1651.39  1659.31
                             1663.82  1753.42  1763.80  1772.13  1772.47
                             1774.44  1777.82  1807.95  1808.30  1829.32
                             1829.32  1868.32  1880.16  1897.17  1901.06
                             1922.49  1925.29  1929.36  2035.59  2036.73
                             2047.83  2070.87  2202.13  2234.26  2259.30
                             2296.74  2368.01  2369.91  3434.62  3434.69
                             3436.49  3436.59  3820.82  3820.88  3825.16
                             3825.44  4552.09  4552.41  4556.63  4557.62
                             4576.29  4579.48  4579.72  4583.57

 Zero-point correction=                           0.322960 (Hartree/Particle)
 Thermal correction to Energy=                    0.354331
 Thermal correction to Enthalpy=                  0.355275
 Thermal correction to Gibbs Free Energy=         0.256166
 Sum of electronic and zero-point Energies=          -2678.160157
 Sum of electronic and thermal Energies=             -2678.128786
 Sum of electronic and thermal Enthalpies=           -2678.127842
 Sum of electronic and thermal Free Energies=        -2678.226951

                     E (Thermal)             CV                S
                      KCal/Mol        Cal/Mol-Kelvin    Cal/Mol-Kelvin
 Total                  222.346            119.633            208.592
 Electronic               0.000              0.000              0.000
 Translational            0.889              2.981             44.689
 Rotational               0.889              2.981             37.230
 Vibrational            220.568            113.671            126.673
 Vibration     1          0.593              1.987              7.885
 Vibration     2          0.593              1.987              7.814
 Vibration     3          0.593              1.986              6.840
 Vibration     4          0.593              1.984              5.849
 Vibration     5          0.594              1.981              5.304
 Vibration     6          0.595              1.980              5.134
 Vibration     7          0.596              1.975              4.566
 Vibration     8          0.599              1.967              4.083
 Vibration     9          0.600              1.963              3.918
 Vibration    10          0.600              1.961              3.821
 Vibration    11          0.601              1.958              3.731
 Vibration    12          0.603              1.954              3.580
 Vibration    13          0.604              1.950              3.471
 Vibration    14          0.604              1.947              3.408
 Vibration    15          0.606              1.941              3.273
 Vibration    16          0.608              1.937              3.179
 Vibration    17          0.617              1.906              2.714
 Vibration    18          0.618              1.904              2.682
 Vibration    19          0.624              1.883              2.471
 Vibration    20          0.625              1.881              2.446
 Vibration    21          0.638              1.841              2.138
 Vibration    22          0.642              1.828              2.057
 Vibration    23          0.654              1.788              1.844
 Vibration    24          0.683              1.701              1.500
 Vibration    25          0.685              1.696              1.486
 Vibration    26          0.706              1.635              1.309
 Vibration    27          0.709              1.627              1.289
 Vibration    28          0.709              1.627              1.289
 Vibration    29          0.713              1.614              1.257
 Vibration    30          0.716              1.606              1.238
 Vibration    31          0.724              1.583              1.183
 Vibration    32          0.727              1.575              1.166
 Vibration    33          0.728              1.571              1.157
 Vibration    34          0.737              1.547              1.106
 Vibration    35          0.745              1.527              1.066
 Vibration    36          0.763              1.479              0.977
 Vibration    37          0.777              1.440              0.913
 Vibration    38          0.778              1.439              0.911
 Vibration    39          0.783              1.426              0.891
 Vibration    40          0.806              1.368              0.805
 Vibration    41          0.806              1.367              0.805
 Vibration    42          0.818              1.338              0.766
 Vibration    43          0.870              1.216              0.621
 Vibration    44          0.912              1.126              0.532
 Vibration    45          0.926              1.096              0.504
 Vibration    46          0.926              1.096              0.504
 Vibration    47          0.929              1.091              0.499
 Vibration    48          0.934              1.081              0.491
 Vibration    49          0.954              1.041              0.457
 Vibration    50          0.958              1.032              0.450

 Normal termination of Gaussian 16 at Mon Aug  3 13:34:41 2020.
