 Gaussian 16, Revision C.01,
 Gaussian 16:  ES64L-G16RevC.01  3-Jul-2019

 ----------------------------------------------------------------------
 #P B3LYP/6-311++G(d,p) EmpiricalDispersion=GD3 freq(noraman) SCF=YQC N
 oSymm
 ----------------------------------------------------------------------

 ------------------------------------------
 Restart from PMDA_BoronicAcid_Boroxine.log
 ------------------------------------------
 Symbolic Z-matrix:
 Charge =  0 Multiplicity = 1

                          Input orientation:
 ---------------------------------------------------------------------
 Center     Atomic      Atomic             Coordinates (Angstroms)
 Number     Number       Type             X           Y           Z
 ---------------------------------------------------------------------
      1          6           0        2.664908   -0.781637   -0.584221
      2          6           0        1.218537   -0.489753   -0.360659
      3          6           0        0.106105   -1.154605   -0.862415
      4          1           0        0.185573   -2.016437   -1.512877
      5          6           0       -1.116319   -0.628490   -0.462157
      6          6           0       -2.493214   -1.088283   -0.808360
      7          6           0       -1.218757    0.482315    0.375741
      8          6           0       -2.665094    0.774219    0.599326
      9          6           0       -0.106317    1.147184    0.877494
     10          1           0       -0.185808    2.009000    1.527970
     11          6           0        1.116097    0.621069    0.477231
     12          6           0        2.493003    1.080855    0.823430
     13          7           0       -3.374569   -0.204272   -0.139160
     14          7           0        3.374334    0.196912    0.154176
     15          8           0       -3.149107    1.652217    1.266670
     16          8           0       -2.810502   -2.013985   -1.510431
     17          8           0        2.810266    2.006630    1.525430
     18          8           0        3.148973   -1.659544   -1.251650
     19          6           0       -4.797222   -0.288833   -0.200857
     20          6           0        4.797009    0.281721    0.215639
     21          6           0       -5.552985    0.874946   -0.363404
     22          6           0       -6.937983    0.784363   -0.417653
     23          1           0       -5.060060    1.834657   -0.433220
     24          6           0       -7.591078   -0.454737   -0.321489
     25          1           0       -7.526481    1.686295   -0.540532
     26          6           0       -6.806881   -1.608505   -0.163416
     27          6           0       -5.421360   -1.534576   -0.098061
     28          1           0       -7.293082   -2.574248   -0.086905
     29          1           0       -4.826345   -2.429690    0.018662
     30          6           0        5.420911    1.527554    0.112452
     31          6           0        6.806409    1.601759    0.177724
     32          1           0        4.825745    2.422528   -0.004559
     33          6           0        7.590817    0.448168    0.336087
     34          1           0        7.292450    2.567561    0.100912
     35          6           0        6.937957   -0.791032    0.432521
     36          6           0        5.552958   -0.881903    0.378348
     37          1           0        7.526640   -1.692831    0.555518
     38          1           0        5.060196   -1.841681    0.448304
     39          5           0       -9.132839   -0.546220   -0.387631
     40          8           0       -9.904501    0.594063   -0.549298
     41          5           0      -11.275312    0.518653   -0.608438
     42          8           0       -9.775519   -1.770376   -0.286407
     43          5           0      -11.145720   -1.857416   -0.343657
     44          8           0      -11.892029   -0.709764   -0.504875
     45          1           0      -11.922951    1.501604   -0.747521
     46          1           0      -11.682346   -2.910581   -0.255055
     47          5           0        9.132564    0.539868    0.402283
     48          8           0        9.904418   -0.600231    0.564246
     49          5           0       11.275227   -0.524533    0.623366
     50          8           0        9.775029    1.764151    0.301000
     51          5           0       11.145201    1.851476    0.358255
     52          8           0       11.891723    0.703945    0.519402
     53          1           0       11.923006   -1.507346    0.762777
     54          1           0       11.681644    2.904731    0.269638
 ---------------------------------------------------------------------

 SCF Done:  E(RB3LYP) =  -1858.86030680     a.u. after    8 cycles
 SCF Done:  E(RB3LYP) =  -1858.86031099     A.U. after   10 cycles

 Alpha  occ. eigenvalues --  -19.16035 -19.16035 -19.16034 -19.16034 -19.16003
 Alpha  occ. eigenvalues --  -19.16003 -19.15288 -19.15288 -19.15288 -19.15287
 Alpha  occ. eigenvalues --  -14.40311 -14.40310 -10.33062 -10.33062 -10.33061
 Alpha  occ. eigenvalues --  -10.33061 -10.24995 -10.24994 -10.24515 -10.24506
 Alpha  occ. eigenvalues --  -10.24468 -10.24449 -10.24365 -10.24359 -10.19860
 Alpha  occ. eigenvalues --  -10.19859 -10.19859 -10.19858 -10.19776 -10.19776
 Alpha  occ. eigenvalues --  -10.19775 -10.19775 -10.18025 -10.18025  -6.81938
 Alpha  occ. eigenvalues --   -6.81937  -6.81893  -6.81893  -6.81892  -6.81892
 Alpha  occ. eigenvalues --   -1.11162  -1.11117  -1.09430  -1.09419  -1.09364
 Alpha  occ. eigenvalues --   -1.09363  -1.03444  -1.03444  -1.03404  -1.03403
 Alpha  occ. eigenvalues --   -1.00296  -1.00129  -0.93375  -0.89047  -0.87809
 Alpha  occ. eigenvalues --   -0.84583  -0.82310  -0.79444  -0.77409  -0.77408
 Alpha  occ. eigenvalues --   -0.76458  -0.72300  -0.71947  -0.68936  -0.66308
 Alpha  occ. eigenvalues --   -0.65710  -0.64176  -0.63752  -0.62537  -0.61597
 Alpha  occ. eigenvalues --   -0.60805  -0.60663  -0.60400  -0.59563  -0.58303
 Alpha  occ. eigenvalues --   -0.57374  -0.55443  -0.55370  -0.55185  -0.54057
 Alpha  occ. eigenvalues --   -0.52358  -0.51707  -0.51538  -0.50978  -0.50383
 Alpha  occ. eigenvalues --   -0.50131  -0.49976  -0.49389  -0.48728  -0.48650
 Alpha  occ. eigenvalues --   -0.47862  -0.47680  -0.47114  -0.46972  -0.46970
 Alpha  occ. eigenvalues --   -0.46831  -0.45685  -0.45267  -0.44905  -0.44654
 Alpha  occ. eigenvalues --   -0.44542  -0.43784  -0.43462  -0.42510  -0.41932
 Alpha  occ. eigenvalues --   -0.41199  -0.41169  -0.41054  -0.41053  -0.40213
 Alpha  occ. eigenvalues --   -0.39913  -0.38928  -0.38928  -0.38649  -0.38533
 Alpha  occ. eigenvalues --   -0.38129  -0.38108  -0.37301  -0.37299  -0.34598
 Alpha  occ. eigenvalues --   -0.34591  -0.34346  -0.34345  -0.33420  -0.33392
 Alpha  occ. eigenvalues --   -0.32910  -0.32455  -0.32109  -0.32002  -0.30786
 Alpha  occ. eigenvalues --   -0.30249  -0.27806  -0.27795  -0.27124  -0.26583
 Alpha virt. eigenvalues --   -0.13729  -0.10223  -0.07989  -0.07078  -0.06467
 Alpha virt. eigenvalues --   -0.03639  -0.03622  -0.02978  -0.02952  -0.01919
 Alpha virt. eigenvalues --   -0.00990  -0.00590  -0.00385  -0.00296   0.00367

 Mulliken charges:
               1
     1  C   -0.008349
     2  C    0.209041
     3  C   -0.713629
     4  H    0.226667
     5  C    0.208680
     6  C   -0.007991
     7  C    0.208787
     8  C   -0.008422
     9  C   -0.713593
    10  H    0.226671
    11  C    0.208751
    12  C   -0.008250
    13  N    0.392859
    14  N    0.392993
    15  O   -0.239211
    16  O   -0.239275
    17  O   -0.239265
    18  O   -0.239227
    19  C   -0.546472
    20  C   -0.546475
    21  C    0.199036
    22  C   -0.202345
    23  H    0.219937
    24  C   -0.476686
    25  H    0.219906
    26  C   -0.202934
    27  C    0.199345
    28  H    0.219906
    29  H    0.219953
    30  C    0.199396
    31  C   -0.203003
    32  H    0.219929
    33  C   -0.476729
    34  H    0.219906
    35  C   -0.202218
    36  C    0.198940
    37  H    0.219918
    38  H    0.219937
    39  B    0.797430
    40  O   -0.421791
    41  B    0.359076
    42  O   -0.421807
    43  B    0.359052
    44  O   -0.315563
    45  H   -0.017323
    46  H   -0.017326
    47  B    0.797434
    48  O   -0.421787
    49  B    0.359052
    50  O   -0.421799
    51  B    0.359075
    52  O   -0.315563
    53  H   -0.017325
    54  H   -0.017318
 Sum of Mulliken charges =  -0.00000

 Dipole moment (field-independent basis, Debye):
    X=              0.0008    Y=             -0.0001    Z=             -0.0000  Tot=              0.0008
 Quadrupole moment (field-independent basis, Debye-Ang):
   XX=           -248.5801   YY=           -231.3991   ZZ=           -231.3602
   XY=             -0.4778   XZ=              0.0138   YZ=            -12.5596

  Exact polarizability:     694.926      20.430     329.574      18.900      32.489     214.472
 Approx polarizability:     760.663       5.001     610.628      11.017      91.083     380.742

                      1                      2                      3
                      A                      A                      A
 Frequencies --      8.3468                18.1135                22.0754
 Red. masses --      9.4674                 8.8898                 9.1017
 Frc consts  --      0.0004                 0.0017                 0.0026
 IR Inten    --      0.0021                 0.0065                 0.0000

                      4                      5                      6
                      A                      A                      A
 Frequencies --     27.4297                37.5706                38.6157
 Red. masses --      4.9066                 6.2546                 8.9731
 Frc consts  --      0.0022                 0.0052                 0.0079
 IR Inten    --      0.2100                 0.0000                 0.0000

                      7                      8                      9
                      A                      A                      A
 Frequencies --     55.4213                65.5397                71.5535
 Red. masses --      9.1086                 5.9859                10.1234
 Frc consts  --      0.0165                 0.0151                 0.0305
 IR Inten    --      0.0009                 0.0257                 0.0000

                     10                     11                     12
                      A                      A                      A
 Frequencies --     77.6929                83.9833                85.6863
 Red. masses --      4.0453                 7.9553                 6.3180
 Frc consts  --      0.0144                 0.0331                 0.0273
 IR Inten    --      0.0000                 0.0395                 1.8911

                     13                     14                     15
                      A                      A                      A
 Frequencies --     98.7245               111.6116               118.0858
 Red. masses --      8.7124                 9.3204                 9.3723
 Frc consts  --      0.0500                 0.0684                 0.0770
 IR Inten    --      0.0000                 2.0901                 0.0000

                     16                     17                     18
                      A                      A                      A
 Frequencies --    128.5483               151.1431               166.8870
 Red. masses --     12.1234                 8.8128                10.1376
 Frc consts  --      0.1180                 0.1186                 0.1664
 IR Inten    --      8.5038                 0.0000                 0.0000

                     19                     20                     21
                      A                      A                      A
 Frequencies --    172.7847               188.5734               194.5797
 Red. masses --      8.7571                11.1840                 5.5843
 Frc consts  --      0.1540                 0.2343                 0.1246
 IR Inten    --      3.5013                 2.0561                 0.0011

                     22                     23                     24
                      A                      A                      A
 Frequencies --    194.7325               219.0029               219.0116
 Red. masses --      9.9232                 3.0109                 3.0118
 Frc consts  --      0.2217                 0.0851                 0.0851
 IR Inten    --      4.2294                 0.0000                 0.0070

                     25                     26                     27
                      A                      A                      A
 Frequencies --    252.3874               266.5076               280.7741
 Red. masses --      8.9722                10.0134                12.5721
 Frc consts  --      0.3367                 0.4190                 0.5839
 IR Inten    --      0.0000                 0.0000                 0.0000

                     28                     29                     30
                      A                      A                      A
 Frequencies --    295.1224               297.5318               338.6404
 Red. masses --      4.0888                 4.3139                 4.1922
 Frc consts  --      0.2098                 0.2250                 0.2833
 IR Inten    --      1.8876                 0.0000                 0.3098

                     31                     32                     33
                      A                      A                      A
 Frequencies --    341.0043               357.0290               358.1260
 Red. masses --      3.3501                 4.4210                 9.8845
 Frc consts  --      0.2295                 0.3320                 0.7469
 IR Inten    --      0.0000                 0.3085                64.2655

                     34                     35                     36
                      A                      A                      A
 Frequencies --    360.7727               367.6031               412.5171
 Red. masses --      9.3771                 6.0616                 3.4123
 Frc consts  --      0.7191                 0.4826                 0.3421
 IR Inten    --      0.0002                 0.0000                 1.1144

                     37                     38                     39
                      A                      A                      A
 Frequencies --    416.1747               416.1777               438.2706
 Red. masses --      2.9061                 2.9072                 4.6566
 Frc consts  --      0.2966                 0.2967                 0.5270
 IR Inten    --      2.9483                 0.0336                 2.0306

                     40                     41                     42
                      A                      A                      A
 Frequencies --    439.4992               450.1221               502.7582
 Red. masses --      5.4090                 9.3048                12.2043
 Frc consts  --      0.6156                 1.1108                 1.8175
 IR Inten    --      0.0000                 1.1497                 0.2332

                     43                     44                     45
                      A                      A                      A
 Frequencies --    523.7540               524.8711               548.3594
 Red. masses --      3.3570                 3.3525                 9.7334
 Frc consts  --      0.5426                 0.5442                 1.7244
 IR Inten    --     16.9413                 0.0000                29.2392

                     46                     47                     48
                      A                      A                      A
 Frequencies --    548.3779               554.0540               575.8857
 Red. masses --      9.7334                11.0055                 9.2692
 Frc consts  --      1.7245                 1.9905                 1.8112
 IR Inten    --      0.0856                 0.0000                 7.4153

                     49                     50                     51
                      A                      A                      A
 Frequencies --    579.8821               585.8373               594.5924
 Red. masses --      6.2272                 8.9524                10.2598
 Frc consts  --      1.2337                 1.8103                 2.1371
 IR Inten    --      0.0000                13.2423                 0.0000

                     52                     53                     54
                      A                      A                      A
 Frequencies --    638.9018               646.7360               647.0805
 Red. masses --     10.6766                 7.0610                 7.1023
 Frc consts  --      2.5677                 1.7401                 1.7521
 IR Inten    --     75.9977                 0.0000                 1.6123

                     55                     56                     57
                      A                      A                      A
 Frequencies --    648.7704               685.1069               685.3718
 Red. masses --      8.0026                 4.1458                 4.1123
 Frc consts  --      1.9846                 1.1465                 1.1381
 IR Inten    --      0.0000                 0.0000                72.2615

                     58                     59                     60
                      A                      A                      A
 Frequencies --    686.8377               732.6435               735.7965
 Red. masses --      8.3191                 6.4494                 6.2802
 Frc consts  --      2.3122                 2.0397                 2.0033
 IR Inten    --      0.0003                25.1681                31.0826

                     61                     62                     63
                      A                      A                      A
 Frequencies --    750.0442               752.1189               766.5029
 Red. masses --      5.2800                 7.1381                 4.6297
 Frc consts  --      1.7501                 2.3791                 1.6026
 IR Inten    --      0.0000                 0.0000                51.3060

                     64                     65                     66
                      A                      A                      A
 Frequencies --    768.4468               778.2288               794.5810
 Red. masses --     11.0911                 5.2900                 6.1415
 Frc consts  --      3.8588                 1.8876                 2.2845
 IR Inten    --      0.0000                 0.0000                 0.0000

                     67                     68                     69
                      A                      A                      A
 Frequencies --    798.1181               810.0380               810.0610
 Red. masses --     12.0621                15.7399                15.7534
 Frc consts  --      4.5270                 6.0851                 6.0906
 IR Inten    --     10.6696                 0.0000                 6.1970

                     70                     71                     72
                      A                      A                      A
 Frequencies --    835.9138               849.4573               852.7056
 Red. masses --      3.7528                 2.8431                 1.2593
 Frc consts  --      1.5450                 1.2087                 0.5395
 IR Inten    --     76.8162                 0.0000                 0.0197

                     73                     74                     75
                      A                      A                      A
 Frequencies --    854.7952               859.8576               868.3154
 Red. masses --      1.7051                 1.7251                 2.3742
 Frc consts  --      0.7340                 0.7515                 1.0547
 IR Inten    --      0.0000                 0.0000                38.2949

                     76                     77                     78
                      A                      A                      A
 Frequencies --    880.4957               919.7060               919.7069
 Red. masses --      4.8481                 1.6124                 1.6124
 Frc consts  --      2.2145                 0.8036                 0.8036
 IR Inten    --     78.4290                 0.0002                 0.0001

                     79                     80                     81
                      A                      A                      A
 Frequencies --    921.6419               921.6738               942.5605
 Red. masses --      1.8392                 1.8393                 1.3442
 Frc consts  --      0.9205                 0.9206                 0.7036
 IR Inten    --      0.0564               196.5086                 0.0000

                     82                     83                     84
                      A                      A                      A
 Frequencies --    950.6320               985.2611               985.3225
 Red. masses --      1.5123                 1.8381                 1.8399
 Frc consts  --      0.8052                 1.0513                 1.0525
 IR Inten    --     12.3350                26.3959                 0.0155

                     85                     86                     87
                      A                      A                      A
 Frequencies --    986.9029               987.0061              1000.6196
 Red. masses --      1.3379                 1.3383                 1.3857
 Frc consts  --      0.7678                 0.7682                 0.8174
 IR Inten    --      0.0021                 5.1217                 0.0416

                     88                     89                     90
                      A                      A                      A
 Frequencies --   1000.6228              1012.3594              1012.5379
 Red. masses --      1.3856                 5.7190                 5.6843
 Frc consts  --      0.8174                 3.4533                 3.4336
 IR Inten    --      0.1549                49.5720                 0.0017

                     91                     92                     93
                      A                      A                      A
 Frequencies --   1046.3312              1046.4579              1046.5599
 Red. masses --      2.5761                 2.6190                 1.7602
 Frc consts  --      1.6617                 1.6898                 1.1359
 IR Inten    --     11.9163                 0.0048                 0.0012

                     94                     95                     96
                      A                      A                      A
 Frequencies --   1046.8127              1066.1564              1092.5986
 Red. masses --      1.7291                 9.6133                 1.7588
 Frc consts  --      1.1164                 6.4382                 1.2370
 IR Inten    --      7.2592                 0.0000                 5.6230

                     97                     98                     99
                      A                      A                      A
 Frequencies --   1099.1961              1114.7299              1139.1600
 Red. masses --      7.6389                 6.6384                 5.0053
 Frc consts  --      5.4379                 4.8602                 3.8269
 IR Inten    --    188.8607                 0.0015                 0.0000

                    100                    101                    102
                      A                      A                      A
 Frequencies --   1146.8484              1146.9529              1154.0028
 Red. masses --      8.4795                 9.0266                 1.5452
 Frc consts  --      6.5710                 6.9962                 1.2124
 IR Inten    --      1.0187                 0.0002                40.0599

                    103                    104                    105
                      A                      A                      A
 Frequencies --   1155.2071              1173.6672              1175.1477
 Red. masses --      1.5357                 2.4348                 2.3184
 Frc consts  --      1.2075                 1.9761                 1.8863
 IR Inten    --      0.0004               166.1398                 0.0000

                    106                    107                    108
                      A                      A                      A
 Frequencies --   1177.9798              1189.4188              1189.4211
 Red. masses --      8.0467                 2.5237                 2.5238
 Frc consts  --      6.5788                 2.1036                 2.1036
 IR Inten    --      0.6523                 0.3421                48.6691

                    109                    110                    111
                      A                      A                      A
 Frequencies --   1197.8367              1224.4194              1226.0448
 Red. masses --      3.0103                 1.1527                 1.2136
 Frc consts  --      2.5448                 1.0182                 1.0748
 IR Inten    --    123.1641                 0.0033               181.5298

                    112                    113                    114
                      A                      A                      A
 Frequencies --   1230.5385              1293.4558              1319.7614
 Red. masses --      1.3060                 7.8741                 6.7513
 Frc consts  --      1.1652                 7.7617                 6.9283
 IR Inten    --      0.0000                 0.0001                 0.1040

                    115                    116                    117
                      A                      A                      A
 Frequencies --   1319.8539              1336.6408              1337.6458
 Red. masses --      6.6968                 4.7620                 4.5486
 Frc consts  --      6.8734                 5.0127                 4.7952
 IR Inten    --    196.6731               609.8734                 0.0024

                    118                    119                    120
                      A                      A                      A
 Frequencies --   1345.6259              1345.6816              1362.0052
 Red. masses --      1.4300                 1.4328                 8.3803
 Frc consts  --      1.5256                 1.5287                 9.1595
 IR Inten    --      0.0275                 9.9321              5088.1689

                    121                    122                    123
                      A                      A                      A
 Frequencies --   1369.4117              1369.5179              1379.2845
 Red. masses --      8.0078                 7.9983                 9.8780
 Frc consts  --      8.8477                 8.8386                11.0721
 IR Inten    --      0.0833               958.7315                 0.0008

                    124                    125                    126
                      A                      A                      A
 Frequencies --   1390.7932              1393.0730              1411.2010
 Red. masses --      6.7527                 7.1250                10.8048
 Frc consts  --      7.6958                 8.1467                12.6779
 IR Inten    --   1649.0146                 0.0001                 1.1841

                    127                    128                    129
                      A                      A                      A
 Frequencies --   1440.9634              1440.9811              1476.2207
 Red. masses --      2.6798                 2.6800                 3.3037
 Frc consts  --      3.2784                 3.2787                 4.2418
 IR Inten    --     17.8316                87.6246                14.1658

                    130                    131                    132
                      A                      A                      A
 Frequencies --   1484.4175              1547.7563              1547.9433
 Red. masses --     10.4014                 2.5167                 2.5239
 Frc consts  --     13.5037                 3.5521                 3.5632
 IR Inten    --      0.8174                 0.0082                 4.5818

                    133                    134                    135
                      A                      A                      A
 Frequencies --   1602.4198              1602.4789              1645.1357
 Red. masses --      6.5372                 6.5383                 6.4873
 Frc consts  --      9.8900                 9.8923                10.3446
 IR Inten    --      0.0276                18.6084                 0.0022

                    136                    137                    138
                      A                      A                      A
 Frequencies --   1646.6376              1649.1185              1651.2331
 Red. masses --      5.4781                 7.6573                 8.1320
 Frc consts  --      8.7514                12.2696                13.0636
 IR Inten    --    313.7345                 0.0000                 0.0002

                    139                    140                    141
                      A                      A                      A
 Frequencies --   1780.9210              1785.1443              1829.5946
 Red. masses --     12.9208                12.9650                13.0361
 Frc consts  --     24.1451                24.3426                25.7104
 IR Inten    --      0.0089              1150.9783               147.9093

                    142                    143                    144
                      A                      A                      A
 Frequencies --   1840.4134              2679.0971              2679.1168
 Red. masses --     12.9932                 1.0960                 1.0960
 Frc consts  --     25.9296                 4.6348                 4.6349
 IR Inten    --      0.0002                 5.7764               419.4841

                    145                    146                    147
                      A                      A                      A
 Frequencies --   2688.3731              2688.4915              3180.5061
 Red. masses --      1.1023                 1.1024                 1.0894
 Frc consts  --      4.6940                 4.6946                 6.4930
 IR Inten    --    331.1516                 0.1287                 4.1451

                    148                    149                    150
                      A                      A                      A
 Frequencies --   3180.5285              3180.5906              3180.6136
 Red. masses --      1.0894                 1.0902                 1.0902
 Frc consts  --      6.4930                 6.4977                 6.4979
 IR Inten    --      4.5264                 3.6870                 0.9057

                    151                    152                    153
                      A                      A                      A
 Frequencies --   3207.4211              3208.1128              3213.4681
 Red. masses --      1.0937                 1.0934                 1.0933
 Frc consts  --      6.6291                 6.6301                 6.6515
 IR Inten    --      3.6388                 0.0013                 1.4189

                    154                    155                    156
                      A                      A                      A
 Frequencies --   3213.5007              3213.9511              3213.9793
 Red. masses --      1.0932                 1.0943                 1.0943
 Frc consts  --      6.6516                 6.6598                 6.6599
 IR Inten    --      1.6646                 1.9460                 1.6061

 - Thermochemistry -
 -------------------
 Temperature   298.150 Kelvin.  Pressure   1.00000 Atm.
 Atom     1 has atomic number  6 and mass  12.00000

 Molecular mass:   532.12068 amu.
 Principal axes and moments of inertia in atomic units:
                           1         2         3
     Eigenvalues --  3013.26326********************
           X            0.99731  -0.07044  -0.02028
           Y            0.05929   0.93793  -0.34172
           Z            0.04309   0.33959   0.93958
 This molecule is an asymmetric top.
 Rotational symmetry number  1.
 Warning -- assumption of classical behavior for rotation
           may cause significant error
 Rotational temperatures (Kelvin)      0.02874     0.00093     0.00091
 Rotational constants (GHZ):           0.59893     0.01933     0.01888
 Zero-point vibrational energy     954765.9 (Joules/Mol)
                                  228.19453 (Kcal/Mol)
 Warning -- explicit consideration of  51 degrees of freedom as
           vibrations may cause significant error
 Vibrational temperatures:     12.01    26.06    31.76    39.47    54.06
          (Kelvin)             55.56    79.74    94.30   102.95   111.78
                              120.83   123.28   142.04   160.58   169.90
                              184.95   217.46   240.11   248.60   271.32
                              279.96   280.18   315.10   315.11   363.13
                              383.44   403.97   424.62   428.08   487.23
                              490.63   513.69   515.26   519.07   528.90
                              593.52   598.78   598.79   630.57   632.34
                              647.63   723.36   753.57   755.17   788.97
                              788.99   797.16   828.57   834.32   842.89
                              855.49   919.24   930.51   931.00   933.44
                              985.72   986.10   988.21  1054.11  1058.65
                             1079.15  1082.13  1102.83  1105.62  1119.70
                             1143.22  1148.31  1165.46  1165.50  1202.69
                             1222.18  1226.85  1229.86  1237.14  1249.31
                             1266.84  1323.25  1323.25  1326.04  1326.08
                             1356.13  1367.75  1417.57  1417.66  1419.93
                             1420.08  1439.67  1439.67  1456.56  1456.82
                             1505.44  1505.62  1505.77  1506.13  1533.96
                             1572.01  1581.50  1603.85  1639.00  1650.06
                             1650.21  1660.35  1662.09  1688.65  1690.78
                             1694.85  1711.31  1711.31  1723.42  1761.67
                             1764.00  1770.47  1860.99  1898.84  1898.98
                             1923.13  1924.57  1936.06  1936.14  1959.62
                             1970.28  1970.43  1984.48  2001.04  2004.32
                             2030.40  2073.22  2073.25  2123.95  2135.75
                             2226.88  2227.15  2305.52  2305.61  2366.98
                             2369.14  2372.71  2375.76  2562.35  2568.42
                             2632.38  2647.94  3854.62  3854.65  3867.97
                             3868.14  4576.04  4576.07  4576.16  4576.19
                             4614.76  4615.76  4623.46  4623.51  4624.16
                             4624.20

 Zero-point correction=                           0.363651 (Hartree/Particle)
 Thermal correction to Energy=                    0.395521
 Thermal correction to Enthalpy=                  0.396465
 Thermal correction to Gibbs Free Energy=         0.295957
 Sum of electronic and zero-point Energies=          -1858.496660
 Sum of electronic and thermal Energies=             -1858.464790
 Sum of electronic and thermal Enthalpies=           -1858.463846
 Sum of electronic and thermal Free Energies=        -1858.564354

                     E (Thermal)             CV                S
                      KCal/Mol        Cal/Mol-Kelvin    Cal/Mol-Kelvin
 Total                  248.193            121.836            211.538
 Electronic               0.000              0.000              0.000
 Translational            0.889              2.981             44.701
 Rotational               0.889              2.981             38.528
 Vibrational            246.416            115.874            128.309
 Vibration     1          0.593              1.987              8.370
 Vibration     2          0.593              1.986              6.831
 Vibration     3          0.593              1.985              6.438
 Vibration     4          0.593              1.984              6.007
 Vibration     5          0.594              1.982              5.383
 Vibration     6          0.594              1.981              5.329
 Vibration     7          0.596              1.975              4.614
 Vibration     8          0.597              1.971              4.283
 Vibration     9          0.598              1.968              4.110
 Vibration    10          0.599              1.964              3.948
 Vibration    11          0.601              1.960              3.796
 Vibration    12          0.601              1.959              3.756
 Vibration    13          0.604              1.950              3.479
 Vibration    14          0.607              1.940              3.241
 Vibration    15          0.608              1.934              3.131
 Vibration    16          0.611              1.925              2.968
 Vibration    17          0.619              1.901              2.658
 Vibration    18          0.624              1.883              2.470
 Vibration    19          0.626              1.876              2.405
 Vibration    20          0.633              1.856              2.242
 Vibration    21          0.635              1.847              2.184
 Vibration    22          0.635              1.847              2.182
 Vibration    23          0.647              1.812              1.967
 Vibration    24          0.647              1.812              1.967
 Vibration    25          0.664              1.759              1.714
 Vibration    26          0.672              1.735              1.619
 Vibration    27          0.680              1.709              1.529
 Vibration    28          0.689              1.683              1.444
 Vibration    29          0.691              1.678              1.431
 Vibration    30          0.719              1.598              1.219
 Vibration    31          0.721              1.594              1.207
 Vibration    32          0.732              1.561              1.135
 Vibration    33          0.733              1.559              1.130
 Vibration    34          0.735              1.553              1.119
 Vibration    35          0.740              1.539              1.090
 Vibration    36          0.776              1.443              0.918
 Vibration    37          0.779              1.435              0.905
 Vibration    38          0.779              1.435              0.905
 Vibration    39          0.798              1.387              0.832
 Vibration    40          0.800              1.384              0.828
 Vibration    41          0.809              1.361              0.795
 Vibration    42          0.858              1.244              0.651
 Vibration    43          0.879              1.197              0.601
 Vibration    44          0.880              1.195              0.599
 Vibration    45          0.904              1.143              0.548
 Vibration    46          0.904              1.143              0.548
 Vibration    47          0.909              1.131              0.536
 Vibration    48          0.932              1.083              0.493
 Vibration    49          0.937              1.075              0.486
 Vibration    50          0.943              1.062              0.475
 Vibration    51          0.952              1.043              0.459

 Optimization completed.
    -- Stationary point found.
 Normal termination of Gaussian 16 at Thu Nov  5 19:39:00 2020.
