 Gaussian 16, Revision C.01,
 Gaussian 16:  ES64L-G16RevC.01  3-Jul-2019

 --------------------------------------------------------------------
 #P B3LYP/6-311++G(d,p) EmpiricalDispersion=GD3 freq(noraman) SCF=YQC
 --------------------------------------------------------------------

 -----------------------------------------
 Restart from TPG_AmineBorane_Borazine.log
 -----------------------------------------
 Symbolic Z-matrix:
 Charge =  0 Multiplicity = 1

                         Standard orientation:
 ---------------------------------------------------------------------
 Center     Atomic      Atomic             Coordinates (Angstroms)
 Number     Number       Type             X           Y           Z
 ---------------------------------------------------------------------
      1          6           0        1.305397   -0.521358   -0.000301
      2          6           0        0.198782   -1.376059   -0.000491
      3          8           0        0.356538   -2.729187   -0.000837
      4          6           0       -1.102826   -0.870614   -0.000359
      5          6           0       -1.289693    0.515080   -0.000427
      6          8           0       -2.540412    1.055079   -0.000863
      7          6           0       -0.201250    1.389674   -0.000205
      8          6           0        1.092156    0.858535   -0.000029
      9          8           0        2.185149    1.671769    0.000263
     10          1           0       -3.176050    0.326699   -0.002496
     11          1           0        1.871854    2.586323    0.000640
     12          1           0        1.305192   -2.915298   -0.001832
     13          7           0        2.632947   -1.067442   -0.000094
     14          5           0        3.316317   -1.258222    1.256770
     15          5           0        3.320548   -1.250335   -1.255799
     16          1           0        2.754588   -1.051802    2.284500
     17          7           0        4.666438   -1.721819    1.218686
     18          1           0        2.762505   -1.037469   -2.284206
     19          7           0        4.670587   -1.714099   -1.215947
     20          5           0        5.380991   -1.955468    0.001818
     21          1           0        5.142787   -1.870748    2.095579
     22          1           0        5.149929   -1.857525   -2.092126
     23          1           0        6.511017   -2.332576    0.002542
     24          7           0       -2.239952   -1.746699   -0.000470
     25          5           0       -2.749660   -2.240919    1.256078
     26          5           0       -2.741659   -2.250352   -1.256540
     27          1           0       -2.290727   -1.857787    2.284163
     28          7           0       -3.828389   -3.175847    1.217165
     29          1           0       -2.276338   -1.874716   -2.284512
     30          7           0       -3.820485   -3.185173   -1.217477
     31          5           0       -4.387766   -3.677176   -0.000096
     32          1           0       -4.197594   -3.512384    2.093786
     33          1           0       -4.184056   -3.528350   -2.093878
     34          1           0       -5.281534   -4.464796    0.000027
     35          7           0       -0.391730    2.812490   -0.000211
     36          5           0       -0.571919    3.499683    1.256133
     37          5           0       -0.573187    3.499565   -1.256436
     38          1           0       -0.473262    2.910032    2.284207
     39          7           0       -0.844882    4.900826    1.217269
     40          1           0       -0.475749    2.910010   -2.284689
     41          7           0       -0.846168    4.900717   -1.217353
     42          5           0       -0.995425    5.636707   -0.000001
     43          1           0       -0.956462    5.387783    2.093882
     44          1           0       -0.958674    5.387580   -2.093900
     45          1           0       -1.232784    6.804108    0.000072
 ---------------------------------------------------------------------

 SCF Done:  E(RB3LYP) =  -1182.69670761     a.u. after    6 cycles
 SCF Done:  E(RB3LYP) =  -1182.69672363     A.U. after    8 cycles

 The electronic state is 1-A.
 Alpha  occ. eigenvalues --  -19.15785 -19.15785 -19.15783 -14.31693 -14.31693
 Alpha  occ. eigenvalues --  -14.31692 -14.30460 -14.30459 -14.30458 -14.30458
 Alpha  occ. eigenvalues --  -14.30457 -14.30457 -10.23951 -10.23950 -10.23949
 Alpha  occ. eigenvalues --  -10.20311 -10.20311 -10.20309  -6.75158  -6.75157
 Alpha  occ. eigenvalues --   -6.75157  -6.75156  -6.75156  -6.75155  -6.75130
 Alpha  occ. eigenvalues --   -6.75129  -6.75128  -1.07549  -1.07087  -1.07086
 Alpha  occ. eigenvalues --   -0.92233  -0.91881  -0.91880  -0.88404  -0.87591
 Alpha  occ. eigenvalues --   -0.87591  -0.85076  -0.85075  -0.85075  -0.81684
 Alpha  occ. eigenvalues --   -0.72542  -0.72540  -0.63302  -0.63301  -0.59921
 Alpha  occ. eigenvalues --   -0.57543  -0.55296  -0.55295  -0.55180  -0.54815
 Alpha  occ. eigenvalues --   -0.54813  -0.54416  -0.53520  -0.53519  -0.51972
 Alpha  occ. eigenvalues --   -0.50224  -0.50223  -0.47150  -0.46382  -0.46178
 Alpha  occ. eigenvalues --   -0.46177  -0.44971  -0.44966  -0.44965  -0.43613
 Alpha  occ. eigenvalues --   -0.43613  -0.41529  -0.40026  -0.40025  -0.39996
 Alpha  occ. eigenvalues --   -0.39462  -0.39461  -0.38720  -0.38719  -0.37778
 Alpha  occ. eigenvalues --   -0.37288  -0.37286  -0.37258  -0.33827  -0.33625
 Alpha  occ. eigenvalues --   -0.33624  -0.33548  -0.33471  -0.33470  -0.29615
 Alpha  occ. eigenvalues --   -0.29427  -0.29425  -0.29383  -0.29381  -0.29362
 Alpha  occ. eigenvalues --   -0.28296  -0.22003  -0.22002
 Alpha virt. eigenvalues --   -0.01288  -0.00904  -0.00903  -0.00721  -0.00719
 Alpha virt. eigenvalues --   -0.00493  -0.00491  -0.00374  -0.00126   0.00533
 Alpha virt. eigenvalues --    0.00901   0.00902   0.01144   0.01145   0.01204

 Mulliken charges:
               1
     1  C    0.570319
     2  C   -0.514183
     3  O   -0.198548
     4  C    0.570661
     5  C   -0.513277
     6  O   -0.198180
     7  C    0.570665
     8  C   -0.513554
     9  O   -0.198019
    10  H    0.295524
    11  H    0.295307
    12  H    0.295289
    13  N   -0.854842
    14  B    0.542729
    15  B    0.542842
    16  H   -0.125321
    17  N   -0.481739
    18  H   -0.124927
    19  N   -0.481677
    20  B    0.300986
    21  H    0.289782
    22  H    0.289686
    23  H   -0.051044
    24  N   -0.854495
    25  B    0.542376
    26  B    0.542238
    27  H   -0.125342
    28  N   -0.481710
    29  H   -0.124842
    30  N   -0.481730
    31  B    0.300939
    32  H    0.289790
    33  H    0.289672
    34  H   -0.051065
    35  N   -0.855122
    36  B    0.542759
    37  B    0.542315
    38  H   -0.125185
    39  N   -0.481689
    40  H   -0.124776
    41  N   -0.481795
    42  B    0.300835
    43  H    0.289718
    44  H    0.289707
    45  H   -0.051075
 Sum of Mulliken charges =  -0.00000

 Dipole moment (field-independent basis, Debye):
    X=             -0.0023    Y=              0.0016    Z=             -0.0015  Tot=              0.0031
 Quadrupole moment (field-independent basis, Debye-Ang):
   XX=           -146.3626   YY=           -146.3931   ZZ=           -149.5164
   XY=              0.0012   XZ=             -0.0101   YZ=              0.0080

  Exact polarizability:     288.761      -0.000     288.587      -0.071       0.013     217.258
 Approx polarizability:     384.716      -0.002     384.572      -0.107       0.027     331.147

                      1                      2                      3
                      A                      A                      A
 Frequencies --     22.3174                22.5184                24.0045
 Red. masses --      3.8948                 3.8770                 3.8317
 Frc consts  --      0.0011                 0.0012                 0.0013
 IR Inten    --      0.0035                 0.0125                 0.0640

                      4                      5                      6
                      A                      A                      A
 Frequencies --     38.7725                42.2665                42.5871
 Red. masses --      5.3055                 5.4235                 5.4250
 Frc consts  --      0.0047                 0.0057                 0.0058
 IR Inten    --      1.1970                 0.4431                 0.4448

                      7                      8                      9
                      A                      A                      A
 Frequencies --     74.6070                74.9241                83.8717
 Red. masses --      6.8140                 6.8169                 5.2365
 Frc consts  --      0.0223                 0.0225                 0.0217
 IR Inten    --      0.0001                 0.0000                 0.0000

                     10                     11                     12
                      A                      A                      A
 Frequencies --    172.1106               172.1481               192.4836
 Red. masses --      5.8564                 5.8629                 7.6383
 Frc consts  --      0.1022                 0.1024                 0.1667
 IR Inten    --      0.0001                 0.0000                 0.0099

                     13                     14                     15
                      A                      A                      A
 Frequencies --    201.3252               201.4155               221.2079
 Red. masses --      3.2980                 3.2989                 6.1872
 Frc consts  --      0.0788                 0.0789                 0.1784
 IR Inten    --      0.2748                 0.2721                 0.0000

                     16                     17                     18
                      A                      A                      A
 Frequencies --    237.4267               252.2010               252.2977
 Red. masses --      3.3603                 5.9615                 5.9526
 Frc consts  --      0.1116                 0.2234                 0.2232
 IR Inten    --      0.0001                 1.4779                 1.4633

                     19                     20                     21
                      A                      A                      A
 Frequencies --    281.9367               282.2397               282.4401
 Red. masses --      2.8559                 2.8531                 2.8540
 Frc consts  --      0.1338                 0.1339                 0.1341
 IR Inten    --      0.3544                 0.0048                 0.0233

                     22                     23                     24
                      A                      A                      A
 Frequencies --    362.5491               374.9011               374.9664
 Red. masses --      5.5242                 5.1078                 5.1085
 Frc consts  --      0.4278                 0.4230                 0.4232
 IR Inten    --      4.8092                 5.4293                 5.4805

                     25                     26                     27
                      A                      A                      A
 Frequencies --    381.0521               394.7157               394.8378
 Red. masses --      4.3014                 3.8579                 3.8573
 Frc consts  --      0.3680                 0.3541                 0.3543
 IR Inten    --      0.0020                11.1869                11.1614

                     28                     29                     30
                      A                      A                      A
 Frequencies --    420.3525               431.1383               431.1880
 Red. masses --      2.1319                 2.5436                 2.5453
 Frc consts  --      0.2219                 0.2786                 0.2788
 IR Inten    --      0.0005                14.7655                14.7076

                     31                     32                     33
                      A                      A                      A
 Frequencies --    450.8955               451.8767               465.8938
 Red. masses --      1.3313                 1.3445                 1.1081
 Frc consts  --      0.1595                 0.1618                 0.1417
 IR Inten    --      0.2814                 0.0399               150.5968

                     34                     35                     36
                      A                      A                      A
 Frequencies --    487.8401               488.1432               531.1141
 Red. masses --      3.2980                 3.2316                 6.7743
 Frc consts  --      0.4624                 0.4537                 1.1259
 IR Inten    --      0.0203                 0.0101                 0.2888

                     37                     38                     39
                      A                      A                      A
 Frequencies --    531.3008               531.3605               547.0680
 Red. masses --      6.8555                 6.8543                 7.9164
 Frc consts  --      1.1402                 1.1402                 1.3959
 IR Inten    --      0.0036                 0.0060                23.8079

                     40                     41                     42
                      A                      A                      A
 Frequencies --    547.1157               595.1671               613.9115
 Red. masses --      7.9160                 8.2008                 8.2207
 Frc consts  --      1.3961                 1.7115                 1.8255
 IR Inten    --     23.7911                 0.0000                 0.0000

                     43                     44                     45
                      A                      A                      A
 Frequencies --    707.1539               707.2275               707.6212
 Red. masses --      1.4409                 1.5436                 1.1738
 Frc consts  --      0.4245                 0.4549                 0.3463
 IR Inten    --      0.0005                 0.0002                 0.0206

                     46                     47                     48
                      A                      A                      A
 Frequencies --    708.6310               708.7273               717.3212
 Red. masses --      3.3144                 3.7181                 1.2990
 Frc consts  --      0.9806                 1.1003                 0.3938
 IR Inten    --      0.0003                 0.0000                 0.0123

                     49                     50                     51
                      A                      A                      A
 Frequencies --    722.2131               722.3217               750.5778
 Red. masses --      1.2840                 1.2842                 5.7499
 Frc consts  --      0.3946                 0.3948                 1.9085
 IR Inten    --     70.8268                70.5202                 8.2050

                     52                     53                     54
                      A                      A                      A
 Frequencies --    750.6043               776.8101               794.5108
 Red. masses --      5.7540                 3.8284                10.9426
 Frc consts  --      1.9100                 1.3611                 4.0698
 IR Inten    --      8.2106                 0.0001                 9.1093

                     55                     56                     57
                      A                      A                      A
 Frequencies --    896.1988               910.0624               910.0971
 Red. masses --      5.3188                 1.6676                 1.6686
 Frc consts  --      2.5169                 0.8138                 0.8143
 IR Inten    --      0.0000                35.0302                34.8439

                     58                     59                     60
                      A                      A                      A
 Frequencies --    915.2299               918.4307               918.7123
 Red. masses --      1.6475                 1.4865                 1.4861
 Frc consts  --      0.8131                 0.7388                 0.7390
 IR Inten    --      0.0008                 0.2714                 0.0047

                     61                     62                     63
                      A                      A                      A
 Frequencies --    918.7852               921.8977               921.9362
 Red. masses --      1.4860                 2.3257                 2.3298
 Frc consts  --      0.7391                 1.1646                 1.1667
 IR Inten    --      0.0021                 9.8346                 9.7998

                     64                     65                     66
                      A                      A                      A
 Frequencies --    925.6926               926.3422               926.3625
 Red. masses --      1.5291                 1.5642                 1.5620
 Frc consts  --      0.7720                 0.7908                 0.7898
 IR Inten    --      0.3004               128.2479               129.4847

                     67                     68                     69
                      A                      A                      A
 Frequencies --    938.2369               940.9456               940.9779
 Red. masses --      5.5561                 4.0867                 4.0880
 Frc consts  --      2.8817                 2.1318                 2.1326
 IR Inten    --      0.0003                 9.8219                 9.8303

                     70                     71                     72
                      A                      A                      A
 Frequencies --    960.2224               960.2653               960.3207
 Red. masses --      1.4603                 1.4601                 1.4645
 Frc consts  --      0.7933                 0.7933                 0.7957
 IR Inten    --      0.0001                 0.0000                 0.0012

                     73                     74                     75
                      A                      A                      A
 Frequencies --    964.3439              1043.9653              1044.0112
 Red. masses --      2.0383                 3.0381                 3.0400
 Frc consts  --      1.1168                 1.9508                 1.9523
 IR Inten    --      0.0004                93.1147                93.1721

                     76                     77                     78
                      A                      A                      A
 Frequencies --   1058.0510              1058.0604              1058.0795
 Red. masses --      1.0764                 1.0763                 1.0763
 Frc consts  --      0.7099                 0.7099                 0.7099
 IR Inten    --      0.0037                 0.1496                 0.1248

                     79                     80                     81
                      A                      A                      A
 Frequencies --   1087.7299              1087.9561              1087.9822
 Red. masses --      1.2927                 1.4395                 1.4390
 Frc consts  --      0.9012                 1.0039                 1.0036
 IR Inten    --      0.0364                 7.3786                 7.3625

                     82                     83                     84
                      A                      A                      A
 Frequencies --   1172.1400              1172.2204              1195.1014
 Red. masses --      4.3016                 4.3043                 1.8425
 Frc consts  --      3.4821                 3.4847                 1.5505
 IR Inten    --    103.0208               102.9164                10.9197

                     85                     86                     87
                      A                      A                      A
 Frequencies --   1195.6421              1195.6836              1216.8497
 Red. masses --      1.8456                 1.8457                 9.9233
 Frc consts  --      1.5545                 1.5547                 8.6572
 IR Inten    --      0.0459                 0.0012                 6.0673

                     88                     89                     90
                      A                      A                      A
 Frequencies --   1217.0466              1217.0820              1230.6356
 Red. masses --     10.0804                10.0798                 2.2620
 Frc consts  --      8.7971                 8.7972                 2.0184
 IR Inten    --      0.0480                 0.0370                 0.0007

                     91                     92                     93
                      A                      A                      A
 Frequencies --   1285.3473              1285.4793              1329.6999
 Red. masses --      1.5780                 1.5773                 5.9965
 Frc consts  --      1.5360                 1.5357                 6.2467
 IR Inten    --    146.5164               146.5546                 0.0004

                     94                     95                     96
                      A                      A                      A
 Frequencies --   1364.3593              1365.2350              1365.2522
 Red. masses --      3.6645                 1.6686                 1.6689
 Frc consts  --      4.0190                 1.8324                 1.8328
 IR Inten    --      0.0031                 0.9589                 0.6788

                     97                     98                     99
                      A                      A                      A
 Frequencies --   1365.2705              1387.6391              1387.7084
 Red. masses --      1.6706                 2.3085                 2.3089
 Frc consts  --      1.8347                 2.6189                 2.6197
 IR Inten    --      8.4999               341.0095               339.9174

                    100                    101                    102
                      A                      A                      A
 Frequencies --   1404.9170              1436.2190              1436.2362
 Red. masses --      1.9901                 4.7438                 4.7439
 Frc consts  --      2.3144                 5.7652                 5.7655
 IR Inten    --      0.0035                 0.0191                 0.0107

                    103                    104                    105
                      A                      A                      A
 Frequencies --   1440.6468              1456.4403              1479.3499
 Red. masses --      4.7356                 4.9795                 3.2018
 Frc consts  --      5.7908                 6.2233                 4.1284
 IR Inten    --   1157.4053                 0.0012              1028.4753

                    106                    107                    108
                      A                      A                      A
 Frequencies --   1479.3802              1490.0627              1508.8437
 Red. masses --      3.2024                 3.9638                 8.8196
 Frc consts  --      4.1293                 5.1853                11.8301
 IR Inten    --   1029.2362                 0.0056               355.8290

                    109                    110                    111
                      A                      A                      A
 Frequencies --   1508.9315              1666.5944              1666.6274
 Red. masses --      8.8146                 7.2523                 7.2547
 Frc consts  --     11.8248                11.8683                11.8726
 IR Inten    --    356.0465                31.8248                31.8579

                    112                    113                    114
                      A                      A                      A
 Frequencies --   2618.0245              2618.0444              2618.8677
 Red. masses --      1.0997                 1.0997                 1.1000
 Frc consts  --      4.4410                 4.4411                 4.4450
 IR Inten    --    413.6601               414.8594                 0.0949

                    115                    116                    117
                      A                      A                      A
 Frequencies --   2630.1018              2630.1773              2632.7185
 Red. masses --      1.0978                 1.0978                 1.0986
 Frc consts  --      4.4743                 4.4746                 4.4865
 IR Inten    --      0.1727                 0.0148               540.2065

                    118                    119                    120
                      A                      A                      A
 Frequencies --   2637.8951              2637.9696              2639.2985
 Red. masses --      1.1009                 1.1009                 1.1014
 Frc consts  --      4.5137                 4.5139                 4.5204
 IR Inten    --     11.8494                11.9850                 0.0209

                    121                    122                    123
                      A                      A                      A
 Frequencies --   3627.2034              3627.2574              3627.4046
 Red. masses --      1.0765                 1.0765                 1.0765
 Frc consts  --      8.3443                 8.3446                 8.3455
 IR Inten    --     38.1201                30.4105                 7.7859

                    124                    125                    126
                      A                      A                      A
 Frequencies --   3628.3603              3628.3822              3628.5004
 Red. masses --      1.0758                 1.0758                 1.0758
 Frc consts  --      8.3448                 8.3449                 8.3455
 IR Inten    --      0.5257                79.6880                72.9023

                    127                    128                    129
                      A                      A                      A
 Frequencies --   3766.9317              3767.1402              3767.1859
 Red. masses --      1.0650                 1.0649                 1.0649
 Frc consts  --      8.9041                 8.9041                 8.9043
 IR Inten    --      6.6981               189.1911               195.7979

 - Thermochemistry -
 -------------------
 Temperature   298.150 Kelvin.  Pressure   1.00000 Atm.
 Atom     1 has atomic number  6 and mass  12.00000

 Molecular mass:   363.23701 amu.
 Principal axes and moments of inertia in atomic units:
                           1         2         3
     Eigenvalues --  ******************************
           X            1.00000   0.00091  -0.00002
           Y           -0.00091   1.00000   0.00000
           Z            0.00002  -0.00000   1.00000
 This molecule is an asymmetric top.
 Rotational symmetry number  1.
 Warning -- assumption of classical behavior for rotation
           may cause significant error
 Rotational temperatures (Kelvin)      0.00834     0.00833     0.00463
 Rotational constants (GHZ):           0.17383     0.17365     0.09637
 Zero-point vibrational energy     870948.4 (Joules/Mol)
                                  208.16168 (Kcal/Mol)
 Warning -- explicit consideration of  42 degrees of freedom as
           vibrations may cause significant error
 Vibrational temperatures:     32.11    32.40    34.54    55.78    60.81
          (Kelvin)             61.27   107.34   107.80   120.67   247.63
                              247.68   276.94   289.66   289.79   318.27
                              341.60   362.86   363.00   405.64   406.08
                              406.37   521.63   539.40   539.49   548.25
                              567.91   568.08   604.79   620.31   620.38
                              648.74   650.15   670.32   701.89   702.33
                              764.15   764.42   764.51   787.11   787.18
                              856.31   883.28  1017.44  1017.54  1018.11
                             1019.56  1019.70  1032.07  1039.10  1039.26
                             1079.91  1079.95  1117.66  1143.12  1289.43
                             1309.38  1309.43  1316.81  1321.42  1321.82
                             1321.93  1326.41  1326.46  1331.87  1332.80
                             1332.83  1349.91  1353.81  1353.86  1381.55
                             1381.61  1381.69  1387.48  1502.03  1502.10
                             1522.30  1522.31  1522.34  1565.00  1565.33
                             1565.36  1686.45  1686.56  1719.48  1720.26
                             1720.32  1750.78  1751.06  1751.11  1770.61
                             1849.33  1849.52  1913.14  1963.01  1964.27
                             1964.29  1964.32  1996.50  1996.60  2021.36
                             2066.40  2066.42  2072.77  2095.49  2128.45
                             2128.50  2143.87  2170.89  2171.02  2397.86
                             2397.91  3766.75  3766.78  3767.97  3784.13
                             3784.24  3787.89  3795.34  3795.45  3797.36
                             5218.74  5218.81  5219.03  5220.40  5220.43
                             5220.60  5419.77  5420.07  5420.14

 Zero-point correction=                           0.331727 (Hartree/Particle)
 Thermal correction to Energy=                    0.356390
 Thermal correction to Enthalpy=                  0.357334
 Thermal correction to Gibbs Free Energy=         0.275469
 Sum of electronic and zero-point Energies=          -1182.364997
 Sum of electronic and thermal Energies=             -1182.340334
 Sum of electronic and thermal Enthalpies=           -1182.339390
 Sum of electronic and thermal Free Energies=        -1182.421254

                     E (Thermal)             CV                S
                      KCal/Mol        Cal/Mol-Kelvin    Cal/Mol-Kelvin
 Total                  223.638             97.462            172.298
 Electronic               0.000              0.000              0.000
 Translational            0.889              2.981             43.563
 Rotational               0.889              2.981             35.956
 Vibrational            221.860             91.500             92.779
 Vibration     1          0.593              1.985              6.417
 Vibration     2          0.593              1.985              6.399
 Vibration     3          0.593              1.985              6.272
 Vibration     4          0.594              1.981              5.321
 Vibration     5          0.595              1.980              5.150
 Vibration     6          0.595              1.980              5.135
 Vibration     7          0.599              1.966              4.028
 Vibration     8          0.599              1.966              4.020
 Vibration     9          0.601              1.960              3.798
 Vibration    10          0.626              1.877              2.412
 Vibration    11          0.626              1.877              2.412
 Vibration    12          0.634              1.850              2.204
 Vibration    13          0.638              1.838              2.121
 Vibration    14          0.638              1.838              2.120
 Vibration    15          0.648              1.809              1.949
 Vibration    16          0.656              1.783              1.822
 Vibration    17          0.664              1.759              1.715
 Vibration    18          0.664              1.759              1.714
 Vibration    19          0.681              1.707              1.522
 Vibration    20          0.681              1.707              1.520
 Vibration    21          0.681              1.706              1.519
 Vibration    22          0.736              1.549              1.111
 Vibration    23          0.746              1.524              1.060
 Vibration    24          0.746              1.523              1.059
 Vibration    25          0.751              1.511              1.035
 Vibration    26          0.762              1.481              0.982
 Vibration    27          0.762              1.481              0.982
 Vibration    28          0.783              1.426              0.891
 Vibration    29          0.792              1.402              0.855
 Vibration    30          0.792              1.402              0.855
 Vibration    31          0.810              1.359              0.793
 Vibration    32          0.811              1.357              0.790
 Vibration    33          0.823              1.326              0.749
 Vibration    34          0.844              1.277              0.689
 Vibration    35          0.844              1.276              0.688
 Vibration    36          0.886              1.181              0.585
 Vibration    37          0.886              1.181              0.584
 Vibration    38          0.886              1.181              0.584
 Vibration    39          0.902              1.146              0.550
 Vibration    40          0.902              1.146              0.550
 Vibration    41          0.953              1.042              0.458
 Vibration    42          0.973              1.002              0.426

 Normal termination of Gaussian 16 at Fri Aug  7 01:00:29 2020.
