 Gaussian 16, Revision C.01,
 Gaussian 16:  ES64L-G16RevC.01  3-Jul-2019

 ----------------------------------------------------------------------
 #P B3LYP/6-311++G(d,p) EmpiricalDispersion=GD3 freq(noraman) SCF=YQC N
 oSymm
 ----------------------------------------------------------------------

 ---------------------------------------
 Restart from F_AmineBorane_Borazine.log
 ---------------------------------------
 Symbolic Z-matrix:
 Charge =  0 Multiplicity = 1

                          Input orientation:
 ---------------------------------------------------------------------
 Center     Atomic      Atomic             Coordinates (Angstroms)
 Number     Number       Type             X           Y           Z
 ---------------------------------------------------------------------
      1          9           0        1.277157   -2.102823   -1.158311
      2          6           0        0.661652   -1.062873   -0.571552
      3          6           0       -0.724745   -1.056037   -0.503642
      4          9           0       -1.404797   -2.089583   -1.027000
      5          6           0       -1.423722    0.007013    0.069755
      6          6           0       -0.661652    1.062873    0.571552
      7          9           0       -1.277157    2.102824    1.158311
      8          6           0        0.724745    1.056038    0.503642
      9          9           0        1.404797    2.089583    1.027001
     10          6           0        1.423722   -0.007013   -0.069755
     11          7           0       -2.838376    0.013909    0.139218
     12          5           0       -3.516691   -1.010173    0.902083
     13          5           0       -3.578328    1.044796   -0.553939
     14          1           0       -2.892406   -1.838748    1.481361
     15          7           0       -4.939941   -0.971390    0.944108
     16          1           0       -3.005964    1.867554   -1.192118
     17          7           0       -4.999129    1.019703   -0.456116
     18          5           0       -5.720302    0.027776    0.280907
     19          1           0       -5.417786   -1.682102    1.477640
     20          1           0       -5.520136    1.735271   -0.940492
     21          1           0       -6.909244    0.033546    0.339393
     22          7           0        2.838376   -0.013908   -0.139218
     23          5           0        3.516691    1.010173   -0.902082
     24          5           0        3.578328   -1.044796    0.553939
     25          1           0        2.892406    1.838749   -1.481361
     26          7           0        4.939941    0.971390   -0.944108
     27          1           0        3.005964   -1.867554    1.192118
     28          7           0        4.999129   -1.019704    0.456116
     29          5           0        5.720302   -0.027776   -0.280908
     30          1           0        5.417786    1.682102   -1.477641
     31          1           0        5.520136   -1.735271    0.940492
     32          1           0        6.909244   -0.033547   -0.339394
 ---------------------------------------------------------------------

 SCF Done:  E(RB3LYP) =  -1112.45379298     a.u. after    6 cycles
 SCF Done:  E(RB3LYP) =  -1112.45382337     A.U. after    9 cycles

 Alpha  occ. eigenvalues --  -24.71451 -24.71451 -24.71450 -24.71450 -14.33237
 Alpha  occ. eigenvalues --  -14.33237 -14.31196 -14.31196 -14.31195 -14.31195
 Alpha  occ. eigenvalues --  -10.28802 -10.28801 -10.28747 -10.28745 -10.25019
 Alpha  occ. eigenvalues --  -10.25018  -6.76255  -6.76255  -6.76253  -6.76253
 Alpha  occ. eigenvalues --   -6.75844  -6.75843  -1.26271  -1.26199  -1.24875
 Alpha  occ. eigenvalues --   -1.24824  -0.95183  -0.94010  -0.90128  -0.89027
 Alpha  occ. eigenvalues --   -0.86048  -0.85862  -0.85862  -0.78169  -0.75716
 Alpha  occ. eigenvalues --   -0.66609  -0.66534  -0.60251  -0.59967  -0.58812
 Alpha  occ. eigenvalues --   -0.56375  -0.56327  -0.55917  -0.55791  -0.54853
 Alpha  occ. eigenvalues --   -0.54810  -0.54171  -0.51703  -0.51585  -0.50203
 Alpha  occ. eigenvalues --   -0.48367  -0.47424  -0.47423  -0.46683  -0.46500
 Alpha  occ. eigenvalues --   -0.46281  -0.45723  -0.45699  -0.45012  -0.42533
 Alpha  occ. eigenvalues --   -0.41309  -0.40829  -0.40792  -0.40350  -0.38582
 Alpha  occ. eigenvalues --   -0.38547  -0.36669  -0.34618  -0.34610  -0.34537
 Alpha  occ. eigenvalues --   -0.34241  -0.31697  -0.30141  -0.30140  -0.30095
 Alpha  occ. eigenvalues --   -0.26282  -0.25766
 Alpha virt. eigenvalues --   -0.03848  -0.02560  -0.02209  -0.01300  -0.00950
 Alpha virt. eigenvalues --   -0.00763  -0.00728  -0.00353  -0.00225   0.00396
 Alpha virt. eigenvalues --    0.00526   0.01443   0.02421   0.02749   0.02891

 Mulliken charges:
               1
     1  F   -0.162119
     2  C   -0.217694
     3  C   -0.217795
     4  F   -0.162111
     5  C    0.715392
     6  C   -0.217697
     7  F   -0.162119
     8  C   -0.217794
     9  F   -0.162111
    10  C    0.715388
    11  N   -0.413126
    12  B    0.379856
    13  B    0.380051
    14  H   -0.049655
    15  N   -0.511850
    16  H   -0.049694
    17  N   -0.511853
    18  B    0.294370
    19  H    0.286913
    20  H    0.286908
    21  H   -0.047593
    22  N   -0.413125
    23  B    0.379856
    24  B    0.380051
    25  H   -0.049655
    26  N   -0.511849
    27  H   -0.049693
    28  N   -0.511853
    29  B    0.294370
    30  H    0.286913
    31  H    0.286908
    32  H   -0.047593
 Sum of Mulliken charges =  -0.00000

 Dipole moment (field-independent basis, Debye):
    X=              0.0000    Y=             -0.0000    Z=             -0.0000  Tot=              0.0000
 Quadrupole moment (field-independent basis, Debye-Ang):
   XX=           -102.2571   YY=           -128.1628   ZZ=           -124.9050
   XY=             -0.6026   XZ=             -1.1641   YZ=             -9.7247

  Exact polarizability:     283.106      -0.962     167.242      -7.552      -8.015     130.422
 Approx polarizability:     332.581      -0.149     270.862      -6.308       3.236     203.960

                      1                      2                      3
                      A                      A                      A
 Frequencies --     33.6299                42.3990                50.2737
 Red. masses --      6.1089                 3.9656                 5.7195
 Frc consts  --      0.0041                 0.0042                 0.0085
 IR Inten    --      0.7183                 0.2820                 1.0559

                      4                      5                      6
                      A                      A                      A
 Frequencies --     52.1328                73.2799                94.7735
 Red. masses --      5.1155                 6.7663                 7.4600
 Frc consts  --      0.0082                 0.0214                 0.0395
 IR Inten    --      0.0000                 0.0000                 0.0000

                      7                      8                      9
                      A                      A                      A
 Frequencies --    137.0286               165.8215               202.3488
 Red. masses --     18.0679                 8.7931                 7.0035
 Frc consts  --      0.1999                 0.1425                 0.1690
 IR Inten    --      0.0050                 0.5599                 0.0000

                     10                     11                     12
                      A                      A                      A
 Frequencies --    206.9779               216.9495               226.2801
 Red. masses --      6.9860                 3.4153                 3.9035
 Frc consts  --      0.1763                 0.0947                 0.1178
 IR Inten    --      0.0000                 0.4753                 0.0000

                     13                     14                     15
                      A                      A                      A
 Frequencies --    259.6818               288.6710               289.6401
 Red. masses --     10.4694                 3.0209                 2.9120
 Frc consts  --      0.4160                 0.1483                 0.1439
 IR Inten    --      1.1223                 0.0000                 1.2433

                     16                     17                     18
                      A                      A                      A
 Frequencies --    304.8261               305.8086               317.5988
 Red. masses --     13.3649                13.1435                 8.3245
 Frc consts  --      0.7317                 0.7242                 0.4947
 IR Inten    --      0.0000                 1.3775                 1.0616

                     19                     20                     21
                      A                      A                      A
 Frequencies --    369.5053               387.4403               394.4581
 Red. masses --      5.6399                 4.3455                12.6393
 Frc consts  --      0.4537                 0.3843                 1.1587
 IR Inten    --      0.0000                 4.9997                 0.0000

                     22                     23                     24
                      A                      A                      A
 Frequencies --    417.4573               419.1648               429.9297
 Red. masses --     11.6717                 2.2368                 2.2516
 Frc consts  --      1.1984                 0.2315                 0.2452
 IR Inten    --     10.3678                 0.0000                26.5901

                     25                     26                     27
                      A                      A                      A
 Frequencies --    448.0804               470.5231               498.5042
 Red. masses --      8.6325                 8.7865                14.4199
 Frc consts  --      1.0212                 1.1461                 2.1113
 IR Inten    --      0.0000                 0.0000                 0.0000

                     28                     29                     30
                      A                      A                      A
 Frequencies --    530.9804               532.0501               589.8839
 Red. masses --      6.7232                 6.8210                 8.1105
 Frc consts  --      1.1168                 1.1376                 1.6628
 IR Inten    --      0.5289                 0.0000                 0.0000

                     31                     32                     33
                      A                      A                      A
 Frequencies --    603.6311               672.1654               699.8191
 Red. masses --      8.6937                12.1546                 7.7701
 Frc consts  --      1.8664                 3.2355                 2.2421
 IR Inten    --     20.7085                 1.0152                 6.6991

                     34                     35                     36
                      A                      A                      A
 Frequencies --    707.4055               707.5620               719.2946
 Red. masses --      1.1633                 1.1629                 1.2618
 Frc consts  --      0.3430                 0.3430                 0.3846
 IR Inten    --      0.2308                 0.0000                 0.0000

                     37                     38                     39
                      A                      A                      A
 Frequencies --    721.8903               748.3342               783.6596
 Red. masses --      1.2879                10.5660                 9.5774
 Frc consts  --      0.3954                 3.4862                 3.4654
 IR Inten    --     93.5818                 0.0000                55.4474

                     40                     41                     42
                      A                      A                      A
 Frequencies --    790.3871               838.9298               907.3705
 Red. masses --      8.8223                 9.4956                 1.6257
 Frc consts  --      3.2472                 3.9375                 0.7886
 IR Inten    --      0.0000                 0.0000                22.7099

                     43                     44                     45
                      A                      A                      A
 Frequencies --    912.8347               915.5787               915.7415
 Red. masses --      1.5846                 1.4937                 1.4720
 Frc consts  --      0.7779                 0.7377                 0.7273
 IR Inten    --      0.0000                 0.0143                 0.0000

                     46                     47                     48
                      A                      A                      A
 Frequencies --    921.0921               925.6706               926.4212
 Red. masses --      2.7221                 1.5158                 1.5201
 Frc consts  --      1.3607                 0.7653                 0.7687
 IR Inten    --      6.1522               168.4604                 0.0000

                     49                     50                     51
                      A                      A                      A
 Frequencies --    928.8349               943.2018               946.5152
 Red. masses --      3.0206                 3.6367                 2.7444
 Frc consts  --      1.5354                 1.9062                 1.4486
 IR Inten    --      0.0000                13.9082                 0.0000

                     52                     53                     54
                      A                      A                      A
 Frequencies --    963.0898               965.6171               996.5395
 Red. masses --      1.5782                 1.4534                 6.1228
 Frc consts  --      0.8625                 0.7984                 3.5825
 IR Inten    --     26.1985                 0.0000               262.4853

                     55                     56                     57
                      A                      A                      A
 Frequencies --   1062.4049              1062.5139              1071.7032
 Red. masses --      1.0832                 1.0827                 1.8297
 Frc consts  --      0.7203                 0.7202                 1.2382
 IR Inten    --      0.0000                 0.9559                70.9713

                     58                     59                     60
                      A                      A                      A
 Frequencies --   1089.5664              1110.8238              1131.3649
 Red. masses --      1.2499                 2.2590                12.4465
 Frc consts  --      0.8743                 1.6423                 9.3865
 IR Inten    --      0.0000                35.0575                 0.0000

                     61                     62                     63
                      A                      A                      A
 Frequencies --   1203.9226              1204.2192              1206.5304
 Red. masses --      2.1666                 2.1487                 6.8711
 Frc consts  --      1.8502                 1.8358                 5.8932
 IR Inten    --      0.0000                34.2983                 0.0000

                     64                     65                     66
                      A                      A                      A
 Frequencies --   1219.0158              1219.0593              1298.5573
 Red. masses --      5.4025                 5.6730                10.6301
 Frc consts  --      4.7300                 4.9672                10.5611
 IR Inten    --      0.0000                 3.0038                 1.8655

                     67                     68                     69
                      A                      A                      A
 Frequencies --   1317.7293              1369.1947              1369.5754
 Red. masses --      8.9984                 1.7141                 1.7320
 Frc consts  --      9.2060                 1.8933                 1.9141
 IR Inten    --     35.2458                 0.0000                 7.3740

                     70                     71                     72
                      A                      A                      A
 Frequencies --   1386.3221              1389.8500              1434.9281
 Red. masses --      2.2892                 2.2560                 4.5993
 Frc consts  --      2.5922                 2.5676                 5.5796
 IR Inten    --      0.0000               417.1914                 0.0000

                     73                     74                     75
                      A                      A                      A
 Frequencies --   1437.3720              1467.6049              1484.8611
 Red. masses --      4.6157                 5.5398                 3.2905
 Frc consts  --      5.6186                 7.0301                 4.2744
 IR Inten    --    850.3985                 0.0000              1615.9652

                     76                     77                     78
                      A                      A                      A
 Frequencies --   1494.8795              1509.5744              1519.6342
 Red. masses --      4.4859                12.1888                12.0818
 Frc consts  --      5.9063                16.3651                16.4384
 IR Inten    --      0.0000               285.2227               347.4658

                     79                     80                     81
                      A                      A                      A
 Frequencies --   1622.9432              1674.5409              2626.0046
 Red. masses --     12.0001                11.9919                 1.1000
 Frc consts  --     18.6226                19.8120                 4.4693
 IR Inten    --      0.0000                 0.0000               530.8582

                     82                     83                     84
                      A                      A                      A
 Frequencies --   2626.4918              2638.5093              2639.6048
 Red. masses --      1.1001                 1.0983                 1.0987
 Frc consts  --      4.4715                 4.5049                 4.5102
 IR Inten    --      0.0000                 0.0013               365.1619

                     85                     86                     87
                      A                      A                      A
 Frequencies --   2645.7449              2646.4413              3627.8654
 Red. masses --      1.1012                 1.1015                 1.0765
 Frc consts  --      4.5416                 4.5452                 8.3477
 IR Inten    --     17.4996                 0.0002                59.7001

                     88                     89                     90
                      A                      A                      A
 Frequencies --   3627.9630              3629.0236              3629.0412
 Red. masses --      1.0765                 1.0758                 1.0758
 Frc consts  --      8.3484                 8.3479                 8.3480
 IR Inten    --      0.0046                 0.0517               114.6565

 - Thermochemistry -
 -------------------
 Temperature   298.150 Kelvin.  Pressure   1.00000 Atm.
 Atom     1 has atomic number  9 and mass  18.99840

 Molecular mass:   308.14614 amu.
 Principal axes and moments of inertia in atomic units:
                           1         2         3
     Eigenvalues --  2443.97246********************
           X            0.99879   0.01848   0.04567
           Y           -0.00487   0.95947  -0.28178
           Z           -0.04902   0.28121   0.95839
 This molecule is an asymmetric top.
 Rotational symmetry number  1.
 Warning -- assumption of classical behavior for rotation
           may cause significant error
 Rotational temperatures (Kelvin)      0.03544     0.00695     0.00622
 Rotational constants (GHZ):           0.73845     0.14488     0.12958
 Zero-point vibrational energy     559930.5 (Joules/Mol)
                                  133.82660 (Kcal/Mol)
 Warning -- explicit consideration of  31 degrees of freedom as
           vibrations may cause significant error
 Vibrational temperatures:     48.39    61.00    72.33    75.01   105.43
          (Kelvin)            136.36   197.15   238.58   291.13   297.79
                              312.14   325.57   373.62   415.33   416.73
                              438.58   439.99   456.95   531.64   557.44
                              567.54   600.63   603.08   618.57   644.69
                              676.98   717.24   763.96   765.50   848.71
                              868.49   967.10  1006.88  1017.80  1018.02
                             1034.90  1038.64  1076.69  1127.51  1137.19
                             1207.03  1305.50  1313.37  1317.31  1317.55
                             1325.25  1331.83  1332.91  1336.39  1357.06
                             1361.82  1385.67  1389.31  1433.80  1528.56
                             1528.72  1541.94  1567.64  1598.23  1627.78
                             1732.18  1732.60  1735.93  1753.89  1753.95
                             1868.33  1895.92  1969.97  1970.51  1994.61
                             1999.68  2064.54  2068.06  2111.56  2136.38
                             2150.80  2171.94  2186.41  2335.05  2409.29
                             3778.23  3778.94  3796.23  3797.80  3806.64
                             3807.64  5219.69  5219.83  5221.36  5221.38

 Zero-point correction=                           0.213266 (Hartree/Particle)
 Thermal correction to Energy=                    0.232277
 Thermal correction to Enthalpy=                  0.233221
 Thermal correction to Gibbs Free Energy=         0.165468
 Sum of electronic and zero-point Energies=          -1112.240557
 Sum of electronic and thermal Energies=             -1112.221547
 Sum of electronic and thermal Enthalpies=           -1112.220602
 Sum of electronic and thermal Free Energies=        -1112.288356

                     E (Thermal)             CV                S
                      KCal/Mol        Cal/Mol-Kelvin    Cal/Mol-Kelvin
 Total                  145.756             73.771            142.599
 Electronic               0.000              0.000              0.000
 Translational            0.889              2.981             43.073
 Rotational               0.889              2.981             34.405
 Vibrational            143.978             67.809             65.122
 Vibration     1          0.594              1.983              5.603
 Vibration     2          0.595              1.980              5.144
 Vibration     3          0.595              1.977              4.807
 Vibration     4          0.596              1.977              4.735
 Vibration     5          0.599              1.967              4.063
 Vibration     6          0.603              1.953              3.559
 Vibration     7          0.614              1.916              2.845
 Vibration     8          0.624              1.884              2.482
 Vibration     9          0.639              1.837              2.112
 Vibration    10          0.641              1.830              2.070
 Vibration    11          0.646              1.815              1.984
 Vibration    12          0.650              1.801              1.908
 Vibration    13          0.668              1.746              1.664
 Vibration    14          0.685              1.695              1.482
 Vibration    15          0.686              1.693              1.476
 Vibration    16          0.696              1.665              1.390
 Vibration    17          0.696              1.663              1.385
 Vibration    18          0.704              1.640              1.322
 Vibration    19          0.742              1.535              1.082
 Vibration    20          0.756              1.497              1.010
 Vibration    21          0.761              1.482              0.983
 Vibration    22          0.780              1.432              0.901
 Vibration    23          0.782              1.429              0.895
 Vibration    24          0.791              1.405              0.859
 Vibration    25          0.807              1.365              0.802
 Vibration    26          0.828              1.315              0.736
 Vibration    27          0.854              1.253              0.662
 Vibration    28          0.886              1.181              0.585
 Vibration    29          0.887              1.179              0.583
 Vibration    30          0.947              1.053              0.467
 Vibration    31          0.962              1.024              0.443

 Optimization completed.
    -- Stationary point found.
 Normal termination of Gaussian 16 at Sat Oct 17 02:31:04 2020.
