 Gaussian 16, Revision C.01,
 Gaussian 16:  ES64L-G16RevC.01  3-Jul-2019

 --------------------------------------------------------------------
 #P B3LYP/6-311++G(d,p) EmpiricalDispersion=GD3 freq(noraman) SCF=YQC
 --------------------------------------------------------------------

 ------------------------------
 Restart from BDBA_boroxine.log
 ------------------------------
 Symbolic Z-matrix:
 Charge =  0 Multiplicity = 1

                         Standard orientation:
 ---------------------------------------------------------------------
 Center     Atomic      Atomic             Coordinates (Angstroms)
 Number     Number       Type             X           Y           Z
 ---------------------------------------------------------------------
      1          6           0       -0.695166   -1.207139    0.003921
      2          6           0        0.695021   -1.207159    0.001354
      3          6           0        1.414077   -0.000076   -0.007739
      4          6           0        0.695027    1.207027   -0.014423
      5          6           0       -0.695160    1.207046   -0.011999
      6          6           0       -1.414216   -0.000036   -0.002793
      7          5           0        2.965300   -0.000091   -0.010208
      8          8           0        3.668546   -1.189997   -0.003701
      9          5           0        5.052152   -1.210255   -0.004652
     10          6           0        5.833497   -2.560443    0.036342
     11          5           0       -2.965446   -0.000012   -0.000179
     12          8           0       -3.668693   -1.189899    0.008277
     13          5           0       -5.052316   -1.210139    0.007154
     14          8           0       -5.723588    0.000016    0.004211
     15          5           0       -5.052323    1.210141   -0.000860
     16          6           0       -5.832958    2.561038    0.028698
     17          8           0        3.668550    1.189772   -0.019815
     18          5           0        5.052183    1.209997   -0.021120
     19          8           0        5.723422   -0.000151   -0.017504
     20          6           0        5.833273    2.560770    0.001409
     21          8           0       -3.668690    1.189871   -0.006338
     22          6           0       -5.833291   -2.560890   -0.019932
     23          1           0        1.238852    2.145386   -0.021413
     24          1           0       -1.238980    2.145420   -0.017157
     25          1           0       -1.238991   -2.145498    0.010990
     26          1           0        1.238841   -2.145532    0.006604
     27          1           0        5.267702    3.371332   -0.463645
     28          1           0        6.011422    2.855222    1.044038
     29          1           0        6.813186    2.475916   -0.473689
     30          1           0        6.811206   -2.483046   -0.444599
     31          1           0        6.016907   -2.837581    1.082796
     32          1           0        5.266127   -3.378642   -0.412812
     33          1           0       -6.814786   -2.476856    0.452022
     34          1           0       -6.007791   -2.853863   -1.063591
     35          1           0       -5.269151   -3.372072    0.445804
     36          1           0       -6.817828    2.476229   -0.435972
     37          1           0       -5.271914    3.370947   -0.443012
     38          1           0       -5.999537    2.856706    1.072891
 ---------------------------------------------------------------------

 SCF Done:  E(RB3LYP) =  -992.167084657     a.u. after    6 cycles
 SCF Done:  E(RB3LYP) =  -992.167098727     A.U. after    8 cycles

 The electronic state is 1-A.
 Alpha  occ. eigenvalues --  -19.14365 -19.14364 -19.14364 -19.14363 -19.14192
 Alpha  occ. eigenvalues --  -19.14191 -10.18091 -10.18091 -10.18036 -10.18034
 Alpha  occ. eigenvalues --  -10.16883 -10.16882 -10.14691 -10.14691 -10.14691
 Alpha  occ. eigenvalues --  -10.14691  -6.80476  -6.80476  -6.80475  -6.80475
 Alpha  occ. eigenvalues --   -6.80367  -6.80366  -1.07710  -1.07709  -1.01840
 Alpha  occ. eigenvalues --   -1.01839  -1.01661  -1.01660  -0.85892  -0.75385
 Alpha  occ. eigenvalues --   -0.75229  -0.71064  -0.71051  -0.70503  -0.70456
 Alpha  occ. eigenvalues --   -0.62724  -0.61407  -0.58352  -0.57643  -0.57220
 Alpha  occ. eigenvalues --   -0.57114  -0.54610  -0.53904  -0.51552  -0.48636
 Alpha  occ. eigenvalues --   -0.47200  -0.46199  -0.46158  -0.45570  -0.45036
 Alpha  occ. eigenvalues --   -0.42600  -0.41243  -0.41237  -0.41044  -0.40270
 Alpha  occ. eigenvalues --   -0.40174  -0.39913  -0.39688  -0.39576  -0.39098
 Alpha  occ. eigenvalues --   -0.38092  -0.37946  -0.37849  -0.37698  -0.37643
 Alpha  occ. eigenvalues --   -0.36970  -0.36438  -0.36433  -0.36091  -0.35109
 Alpha  occ. eigenvalues --   -0.34718  -0.33057  -0.32665  -0.32472  -0.31937
 Alpha  occ. eigenvalues --   -0.26731  -0.26199
 Alpha virt. eigenvalues --   -0.07121  -0.01937  -0.01638  -0.01280  -0.00327
 Alpha virt. eigenvalues --   -0.00139   0.00201   0.00368   0.00576   0.01069
 Alpha virt. eigenvalues --    0.01939   0.02300   0.02405   0.02565   0.02637

 Mulliken charges:
               1
     1  C   -0.282968
     2  C   -0.279859
     3  C   -0.131666
     4  C   -0.280399
     5  C   -0.282491
     6  C   -0.125185
     7  B    0.803275
     8  O   -0.548815
     9  B    0.661698
    10  C   -0.624085
    11  B    0.787611
    12  O   -0.548267
    13  B    0.668737
    14  O   -0.402704
    15  B    0.668683
    16  C   -0.624123
    17  O   -0.548519
    18  B    0.661766
    19  O   -0.402972
    20  C   -0.624280
    21  O   -0.547873
    22  C   -0.624030
    23  H    0.187351
    24  H    0.186968
    25  H    0.186953
    26  H    0.187375
    27  H    0.151747
    28  H    0.164468
    29  H    0.153901
    30  H    0.153851
    31  H    0.164446
    32  H    0.151805
    33  H    0.153172
    34  H    0.163780
    35  H    0.151857
    36  H    0.153172
    37  H    0.151832
    38  H    0.163787
 Sum of Mulliken charges =   0.00000

 Dipole moment (field-independent basis, Debye):
    X=              0.0015    Y=              0.0012    Z=              0.1022  Tot=              0.1022
 Quadrupole moment (field-independent basis, Debye-Ang):
   XX=           -125.2884   YY=           -124.8217   ZZ=           -125.2108
   XY=              0.0043   XZ=              0.6060   YZ=              0.2683

  Exact polarizability:     297.635       0.005     215.148       0.547       0.559     129.009
 Approx polarizability:     352.171       0.004     309.986       0.499       0.607     203.541

                      1                      2                      3
                      A                      A                      A
 Frequencies --     20.9546                22.8482                23.4670
 Red. masses --      3.4921                 1.2294                 1.0334
 Frc consts  --      0.0009                 0.0004                 0.0003
 IR Inten    --      0.0031                 0.0794                 0.0803

                      4                      5                      6
                      A                      A                      A
 Frequencies --     25.2699                27.9482                28.5997
 Red. masses --      1.9941                 1.0285                 1.2144
 Frc consts  --      0.0008                 0.0005                 0.0006
 IR Inten    --      0.1184                 0.2340                 0.1196

                      7                      8                      9
                      A                      A                      A
 Frequencies --     43.7384                58.5544                65.0406
 Red. masses --      4.5759                 3.5348                 7.3595
 Frc consts  --      0.0052                 0.0071                 0.0183
 IR Inten    --      0.0224                 0.0005                 0.0032

                     10                     11                     12
                      A                      A                      A
 Frequencies --     99.1779               112.5277               112.5570
 Red. masses --      4.4758                 4.2878                 4.4465
 Frc consts  --      0.0259                 0.0320                 0.0332
 IR Inten    --      0.0001                 0.5912                 0.0064

                     13                     14                     15
                      A                      A                      A
 Frequencies --    123.9596               124.3493               128.7955
 Red. masses --      7.3036                 9.2253                 7.1308
 Frc consts  --      0.0661                 0.0840                 0.0697
 IR Inten    --      0.0025                 0.0148                 0.0022

                     16                     17                     18
                      A                      A                      A
 Frequencies --    154.8571               219.9572               240.9839
 Red. masses --      4.7580                 2.3965                 3.1412
 Frc consts  --      0.0672                 0.0683                 0.1075
 IR Inten    --      0.0000                 0.0684                 0.0000

                     19                     20                     21
                      A                      A                      A
 Frequencies --    241.6095               245.9544               302.7682
 Red. masses --      6.7344                 3.7541                 3.0560
 Frc consts  --      0.2316                 0.1338                 0.1651
 IR Inten    --      0.0003                 0.0096                 0.0000

                     22                     23                     24
                      A                      A                      A
 Frequencies --    363.6072               411.5364               421.1934
 Red. masses --      7.9475                 3.9585                 2.8022
 Frc consts  --      0.6191                 0.3950                 0.2929
 IR Inten    --      7.7210                 0.6993                 0.0001

                     25                     26                     27
                      A                      A                      A
 Frequencies --    436.8423               451.8668               457.3807
 Red. masses --      4.4314                 4.2059                 5.8999
 Frc consts  --      0.4982                 0.5060                 0.7272
 IR Inten    --      0.0169                 3.6217                17.6690

                     28                     29                     30
                      A                      A                      A
 Frequencies --    470.8818               474.7971               488.2753
 Red. masses --      5.2258                 2.8674                 2.9894
 Frc consts  --      0.6827                 0.3808                 0.4199
 IR Inten    --      0.3377                 1.0475                 3.2965

                     31                     32                     33
                      A                      A                      A
 Frequencies --    488.3367               502.2337               540.6399
 Red. masses --      3.3693                 3.7107                 2.4646
 Frc consts  --      0.4734                 0.5515                 0.4244
 IR Inten    --      3.7561                13.7996                 1.4827

                     34                     35                     36
                      A                      A                      A
 Frequencies --    550.5893               646.4424               648.2494
 Red. masses --      2.3816                 6.3643                 7.0710
 Frc consts  --      0.4254                 1.5670                 1.7507
 IR Inten    --      4.8460                 0.0228                 0.0001

                     37                     38                     39
                      A                      A                      A
 Frequencies --    682.6780               712.9900               740.4912
 Red. masses --      5.5388                 3.3147                 4.1049
 Frc consts  --      1.5209                 0.9928                 1.3262
 IR Inten    --      0.1811               103.4989                64.0010

                     40                     41                     42
                      A                      A                      A
 Frequencies --    788.6907               795.4449               809.5720
 Red. masses --      3.0861                 4.5690                15.5865
 Frc consts  --      1.1310                 1.7033                 6.0188
 IR Inten    --      0.0363                 0.0448                 1.3175

                     43                     44                     45
                      A                      A                      A
 Frequencies --    809.7179               833.0709               835.9350
 Red. masses --     15.9081                 3.9456                 3.9678
 Frc consts  --      6.1452                 1.6133                 1.6336
 IR Inten    --      0.0954                14.8536                 1.0716

                     46                     47                     48
                      A                      A                      A
 Frequencies --    866.1494               873.0398               875.1932
 Red. masses --      1.7017                 1.6841                 2.0183
 Frc consts  --      0.7522                 0.7563                 0.9109
 IR Inten    --      5.7070                11.5628                 0.0006

                     49                     50                     51
                      A                      A                      A
 Frequencies --    886.2681               909.9849               913.9332
 Red. masses --      1.2438                 1.8386                 1.8096
 Frc consts  --      0.5756                 0.8970                 0.8905
 IR Inten    --      0.0005                 1.4081                13.2169

                     52                     53                     54
                      A                      A                      A
 Frequencies --    914.7153               921.2944               923.2949
 Red. masses --      1.9936                 1.9248                 2.2061
 Frc consts  --      0.9828                 0.9626                 1.1081
 IR Inten    --      0.9600                 0.2641                62.9760

                     55                     56                     57
                      A                      A                      A
 Frequencies --    925.5437              1009.5999              1016.2897
 Red. masses --      2.1616                 1.3482                 1.3924
 Frc consts  --      1.0910                 0.8097                 0.8473
 IR Inten    --     61.7209                 0.0000                 0.0001

                     58                     59                     60
                      A                      A                      A
 Frequencies --   1038.3103              1075.3128              1100.1218
 Red. masses --      3.7654                 6.9390                 2.9047
 Frc consts  --      2.3918                 4.7274                 2.0712
 IR Inten    --     49.8695                 0.0059                29.2375

                     61                     62                     63
                      A                      A                      A
 Frequencies --   1129.0131              1141.4457              1143.5306
 Red. masses --      1.8568                10.3584                 4.8924
 Frc consts  --      1.3945                 7.9516                 3.7693
 IR Inten    --      2.2315                 0.0000                 4.1760

                     64                     65                     66
                      A                      A                      A
 Frequencies --   1219.1914              1234.8964              1238.8713
 Red. masses --      1.1480                 3.3467                 3.3516
 Frc consts  --      1.0054                 3.0070                 3.0308
 IR Inten    --      0.0001                45.0119                 0.0007

                     67                     68                     69
                      A                      A                      A
 Frequencies --   1244.0193              1246.2877              1309.4992
 Red. masses --      2.6334                 2.5523                 4.6925
 Frc consts  --      2.4011                 2.3357                 4.7409
 IR Inten    --    177.4789                 0.0810               199.0045

                     70                     71                     72
                      A                      A                      A
 Frequencies --   1316.7079              1317.8356              1331.8742
 Red. masses --      2.9913                 4.3235                 1.4474
 Frc consts  --      3.0556                 4.4239                 1.5128
 IR Inten    --     12.7387                 0.0431                 0.0280

                     73                     74                     75
                      A                      A                      A
 Frequencies --   1342.6804              1344.9460              1350.2412
 Red. masses --      1.9818                 6.2971                 2.6825
 Frc consts  --      2.1050                 6.7112                 2.8815
 IR Inten    --      0.1590              4231.0960                59.6712

                     76                     77                     78
                      A                      A                      A
 Frequencies --   1377.0580              1380.8686              1391.3047
 Red. masses --      2.9181                 2.1136                 3.3040
 Frc consts  --      3.2603                 2.3746                 3.7682
 IR Inten    --      0.4548               504.0759                 4.9770

                     79                     80                     81
                      A                      A                      A
 Frequencies --   1392.0866              1392.3738              1422.0643
 Red. masses --      4.0659                 3.2422                 2.5961
 Frc consts  --      4.6423                 3.7034                 3.0932
 IR Inten    --      3.1571              1808.0899               300.7188

                     82                     83                     84
                      A                      A                      A
 Frequencies --   1460.6895              1461.2774              1464.9096
 Red. masses --      1.0632                 1.0683                 1.0852
 Frc consts  --      1.3365                 1.3440                 1.3720
 IR Inten    --      3.3628                14.2684                41.9751

                     85                     86                     87
                      A                      A                      A
 Frequencies --   1465.9594              1469.1694              1469.3455
 Red. masses --      1.0999                 1.0801                 1.0795
 Frc consts  --      1.3927                 1.3735                 1.3731
 IR Inten    --      1.2320                29.1386                29.2852

                     88                     89                     90
                      A                      A                      A
 Frequencies --   1469.5524              1469.9263              1540.6744
 Red. masses --      1.0745                 1.0838                 2.4754
 Frc consts  --      1.3671                 1.3798                 3.4620
 IR Inten    --     26.3478                 2.9226                83.6774

                     91                     92                     93
                      A                      A                      A
 Frequencies --   1577.7419              1652.5028              3014.8851
 Red. masses --      5.9674                 5.5279                 1.0460
 Frc consts  --      8.7519                 8.8940                 5.6017
 IR Inten    --      0.0008                 0.0000                 0.4217

                     94                     95                     96
                      A                      A                      A
 Frequencies --   3014.9304              3014.9582              3014.9725
 Red. masses --      1.0459                 1.0460                 1.0460
 Frc consts  --      5.6016                 5.6021                 5.6020
 IR Inten    --      3.1219                 0.1451                 3.2381

                     97                     98                     99
                      A                      A                      A
 Frequencies --   3076.0153              3076.0627              3076.1068
 Red. masses --      1.0862                 1.0862                 1.0862
 Frc consts  --      6.0552                 6.0553                 6.0557
 IR Inten    --      4.4957                 2.1633                16.3504

                    100                    101                    102
                      A                      A                      A
 Frequencies --   3076.1488              3114.1300              3114.1463
 Red. masses --      1.0861                 1.1024                 1.1024
 Frc consts  --      6.0555                 6.2988                 6.2988
 IR Inten    --     21.0616                 0.8261                11.1174

                    103                    104                    105
                      A                      A                      A
 Frequencies --   3114.3845              3114.4176              3164.4831
 Red. masses --      1.1023                 1.1023                 1.0879
 Frc consts  --      6.2992                 6.2993                 6.4184
 IR Inten    --     41.2039                 5.2299                 3.0912

                    106                    107                    108
                      A                      A                      A
 Frequencies --   3164.9453              3180.4952              3182.7396
 Red. masses --      1.0868                 1.0937                 1.0953
 Frc consts  --      6.4139                 6.5185                 6.5369
 IR Inten    --      0.0000                21.7013                 0.0001

 - Thermochemistry -
 -------------------
 Temperature   298.150 Kelvin.  Pressure   1.00000 Atm.
 Atom     1 has atomic number  6 and mass  12.00000

 Molecular mass:   298.15052 amu.
 Principal axes and moments of inertia in atomic units:
                           1         2         3
     Eigenvalues --  2385.36292********************
           X            1.00000   0.00000   0.00036
           Y           -0.00000   1.00000   0.00075
           Z           -0.00036  -0.00075   1.00000
 This molecule is an asymmetric top.
 Rotational symmetry number  1.
 Warning -- assumption of classical behavior for rotation
           may cause significant error
 Rotational temperatures (Kelvin)      0.03631     0.00450     0.00401
 Rotational constants (GHZ):           0.75659     0.09379     0.08362
 Zero-point vibrational energy     743579.6 (Joules/Mol)
                                  177.71979 (Kcal/Mol)
 Warning -- explicit consideration of  34 degrees of freedom as
           vibrations may cause significant error
 Vibrational temperatures:     30.15    32.87    33.76    36.36    40.21
          (Kelvin)             41.15    62.93    84.25    93.58   142.69
                              161.90   161.94   178.35   178.91   185.31
                              222.80   316.47   346.72   347.62   353.87
                              435.62   523.15   592.11   606.00   628.52
                              650.14   658.07   677.49   683.13   702.52
                              702.61   722.60   777.86   792.18   930.09
                              932.69   982.22  1025.83  1065.40  1134.75
                             1144.47  1164.79  1165.00  1198.60  1202.72
                             1246.20  1256.11  1259.21  1275.14  1309.27
                             1314.95  1316.07  1325.54  1328.42  1331.65
                             1452.59  1462.21  1493.90  1547.14  1582.83
                             1624.40  1642.29  1645.29  1754.14  1776.74
                             1782.46  1789.87  1793.13  1884.08  1894.45
                             1896.07  1916.27  1931.82  1935.08  1942.70
                             1981.28  1986.76  2001.78  2002.90  2003.32
                             2046.03  2101.61  2102.45  2107.68  2109.19
                             2113.81  2114.06  2114.36  2114.90  2216.69
                             2270.02  2377.58  4337.75  4337.81  4337.85
                             4337.87  4425.70  4425.77  4425.83  4425.89
                             4480.54  4480.56  4480.90  4480.95  4552.99
                             4553.65  4576.02  4579.25

 Zero-point correction=                           0.283215 (Hartree/Particle)
 Thermal correction to Energy=                    0.306479
 Thermal correction to Enthalpy=                  0.307423
 Thermal correction to Gibbs Free Energy=         0.224304
 Sum of electronic and zero-point Energies=           -991.883884
 Sum of electronic and thermal Energies=              -991.860620
 Sum of electronic and thermal Enthalpies=            -991.859676
 Sum of electronic and thermal Free Energies=         -991.942794

                     E (Thermal)             CV                S
                      KCal/Mol        Cal/Mol-Kelvin    Cal/Mol-Kelvin
 Total                  192.318             82.134            174.938
 Electronic               0.000              0.000              0.000
 Translational            0.889              2.981             42.974
 Rotational               0.889              2.981             35.248
 Vibrational            190.541             76.173             96.716
 Vibration     1          0.593              1.986              6.542
 Vibration     2          0.593              1.985              6.370
 Vibration     3          0.593              1.985              6.317
 Vibration     4          0.593              1.985              6.170
 Vibration     5          0.593              1.984              5.970
 Vibration     6          0.593              1.984              5.924
 Vibration     7          0.595              1.980              5.082
 Vibration     8          0.596              1.974              4.505
 Vibration     9          0.597              1.971              4.298
 Vibration    10          0.604              1.950              3.470
 Vibration    11          0.607              1.939              3.225
 Vibration    12          0.607              1.939              3.224
 Vibration    13          0.610              1.929              3.038
 Vibration    14          0.610              1.929              3.032
 Vibration    15          0.611              1.924              2.964
 Vibration    16          0.620              1.897              2.612
 Vibration    17          0.647              1.811              1.959
 Vibration    18          0.658              1.778              1.796
 Vibration    19          0.658              1.777              1.791
 Vibration    20          0.660              1.769              1.759
 Vibration    21          0.694              1.668              1.402
 Vibration    22          0.737              1.547              1.107
 Vibration    23          0.776              1.445              0.921
 Vibration    24          0.784              1.424              0.888
 Vibration    25          0.797              1.390              0.837
 Vibration    26          0.811              1.357              0.790
 Vibration    27          0.816              1.345              0.774
 Vibration    28          0.828              1.315              0.735
 Vibration    29          0.832              1.306              0.724
 Vibration    30          0.844              1.276              0.688
 Vibration    31          0.844              1.276              0.688
 Vibration    32          0.858              1.245              0.653
 Vibration    33          0.896              1.160              0.564
 Vibration    34          0.906              1.138              0.543

 Normal termination of Gaussian 16 at Fri Nov 25 10:24:08 2022.
