 Gaussian 16, Revision C.01,
 Gaussian 16:  ES64L-G16RevC.01  3-Jul-2019

 ----------------------------------------------------------------------
 #P B3LYP/6-311++G(d,p) EmpiricalDispersion=GD3 freq(noraman) SCF=YQC N
 oSymm
 ----------------------------------------------------------------------

 ---------------------------------------------
 Restart from 2_Phenyl_Hydrazide_Hydrazone.log
 ---------------------------------------------
 Symbolic Z-matrix:
 Charge =  0 Multiplicity = 1

                          Input orientation:
 ---------------------------------------------------------------------
 Center     Atomic      Atomic             Coordinates (Angstroms)
 Number     Number       Type             X           Y           Z
 ---------------------------------------------------------------------
      1          6           0        0.046301   -1.401942   -0.029130
      2          6           0       -0.046301    1.401942    0.029130
      3          6           0       -1.156096   -0.725586   -0.272934
      4          6           0        1.156096    0.725586    0.272934
      5          6           0       -1.202465    0.662709   -0.236643
      6          6           0        1.202465   -0.662709    0.236643
      7          1           0        2.128909   -1.193836    0.416665
      8          1           0       -2.128909    1.193836   -0.416665
      9          1           0        2.055647    1.274915    0.527355
     10          1           0       -2.055647   -1.274915   -0.527355
     11          6           0        0.181330   -2.899238   -0.074117
     12          8           0        1.212384   -3.447816   -0.401941
     13          7           0       -0.964064   -3.581461    0.304898
     14          1           0       -1.732526   -3.064833    0.723906
     15          7           0       -1.010437   -4.936983    0.275909
     16          6           0       -2.060784   -5.500204    0.742368
     17          6           0       -2.222436   -6.954680    0.749600
     18          1           0       -2.889941   -4.911032    1.158174
     19          6           0       -3.399393   -7.508752    1.271953
     20          6           0       -3.584226   -8.889211    1.294060
     21          1           0       -4.173088   -6.855195    1.662746
     22          6           0       -2.593649   -9.731397    0.794013
     23          1           0       -4.498921   -9.305123    1.700822
     24          6           0       -1.416748   -9.186521    0.271287
     25          1           0       -2.734523  -10.806179    0.810054
     26          6           0       -1.228353   -7.811461    0.247016
     27          1           0       -0.644714   -9.840704   -0.117896
     28          1           0       -0.319318   -7.381622   -0.155432
     29          6           0       -0.181330    2.899238    0.074117
     30          8           0       -1.212384    3.447816    0.401941
     31          7           0        0.964064    3.581461   -0.304898
     32          1           0        1.732526    3.064833   -0.723906
     33          7           0        1.010437    4.936983   -0.275909
     34          6           0        2.060784    5.500204   -0.742368
     35          6           0        2.222436    6.954680   -0.749600
     36          1           0        2.889941    4.911032   -1.158174
     37          6           0        3.399393    7.508752   -1.271953
     38          6           0        3.584226    8.889211   -1.294060
     39          1           0        4.173088    6.855195   -1.662746
     40          6           0        2.593649    9.731397   -0.794013
     41          1           0        4.498921    9.305123   -1.700822
     42          6           0        1.416748    9.186521   -0.271287
     43          1           0        2.734523   10.806179   -0.810054
     44          6           0        1.228353    7.811461   -0.247016
     45          1           0        0.644714    9.840704    0.117896
     46          1           0        0.319318    7.381622    0.155432
 ---------------------------------------------------------------------

 SCF Done:  E(RB3LYP) =  -1218.95782846     a.u. after    8 cycles
 SCF Done:  E(RB3LYP) =  -1218.95787323     A.U. after   10 cycles

 Alpha  occ. eigenvalues --  -19.10584 -19.10584 -14.39345 -14.39345 -14.36692
 Alpha  occ. eigenvalues --  -14.36692 -10.29380 -10.29380 -10.23123 -10.23123
 Alpha  occ. eigenvalues --  -10.21336 -10.21334 -10.20758 -10.20756 -10.20195
 Alpha  occ. eigenvalues --  -10.20194 -10.20041 -10.20041 -10.19175 -10.19175
 Alpha  occ. eigenvalues --  -10.18859 -10.18859 -10.18803 -10.18803 -10.18633
 Alpha  occ. eigenvalues --  -10.18633 -10.18472 -10.18472  -1.07196  -1.07185
 Alpha  occ. eigenvalues --   -1.02084  -1.02082  -0.89685  -0.88663  -0.88170
 Alpha  occ. eigenvalues --   -0.86083  -0.85562  -0.79753  -0.77895  -0.77402
 Alpha  occ. eigenvalues --   -0.76696  -0.76148  -0.76061  -0.69686  -0.67290
 Alpha  occ. eigenvalues --   -0.65406  -0.63718  -0.63048  -0.62286  -0.61710
 Alpha  occ. eigenvalues --   -0.61632  -0.60618  -0.59475  -0.56629  -0.55482
 Alpha  occ. eigenvalues --   -0.53818  -0.52823  -0.52407  -0.52028  -0.48998
 Alpha  occ. eigenvalues --   -0.47732  -0.47569  -0.47245  -0.46094  -0.45752
 Alpha  occ. eigenvalues --   -0.45624  -0.45319  -0.45270  -0.44855  -0.43851
 Alpha  occ. eigenvalues --   -0.43736  -0.43560  -0.43480  -0.43261  -0.41117
 Alpha  occ. eigenvalues --   -0.40333  -0.39879  -0.38852  -0.37646  -0.37060
 Alpha  occ. eigenvalues --   -0.36859  -0.36790  -0.36364  -0.35891  -0.35887
 Alpha  occ. eigenvalues --   -0.30772  -0.30683  -0.29918  -0.29886  -0.29045
 Alpha  occ. eigenvalues --   -0.28681  -0.27678  -0.26965  -0.26965  -0.26856
 Alpha  occ. eigenvalues --   -0.23852  -0.23705
 Alpha virt. eigenvalues --   -0.08697  -0.06896  -0.05414  -0.04252  -0.02571
 Alpha virt. eigenvalues --   -0.02547  -0.02135  -0.01666  -0.00744  -0.00588
 Alpha virt. eigenvalues --    0.00362   0.00498   0.00757   0.01020   0.01275

 Mulliken charges:
               1
     1  C    0.623617
     2  C    0.623617
     3  C   -0.670407
     4  C   -0.670407
     5  C   -0.044352
     6  C   -0.044352
     7  H    0.220462
     8  H    0.220462
     9  H    0.162575
    10  H    0.162575
    11  C   -0.237687
    12  O   -0.281224
    13  N   -0.078565
    14  H    0.206999
    15  N    0.258155
    16  C   -0.255604
    17  C    0.610714
    18  H    0.099509
    19  C   -0.708531
    20  C   -0.286030
    21  H    0.147087
    22  C   -0.285623
    23  H    0.166913
    24  C   -0.500483
    25  H    0.158332
    26  C    0.294472
    27  H    0.180621
    28  H    0.219051
    29  C   -0.237687
    30  O   -0.281224
    31  N   -0.078565
    32  H    0.206999
    33  N    0.258155
    34  C   -0.255604
    35  C    0.610714
    36  H    0.099509
    37  C   -0.708531
    38  C   -0.286030
    39  H    0.147087
    40  C   -0.285623
    41  H    0.166913
    42  C   -0.500483
    43  H    0.158332
    44  C    0.294472
    45  H    0.180621
    46  H    0.219051
 Sum of Mulliken charges =  -0.00000

 Dipole moment (field-independent basis, Debye):
    X=             -0.0000    Y=              0.0000    Z=             -0.0000  Tot=              0.0000
 Quadrupole moment (field-independent basis, Debye-Ang):
   XX=           -144.6645   YY=           -141.6493   ZZ=           -167.0888
   XY=             37.8623   XZ=             -7.2010   YZ=            -14.1633

  Exact polarizability:     309.473     109.695     607.004     -45.825     -31.702     172.937
 Approx polarizability:     540.561      90.522     704.990     -84.281     -23.982     281.769

                      1                      2                      3
                      A                      A                      A
 Frequencies --      9.8970                19.2340                23.1713
 Red. masses --      6.9900                 6.3668                 3.6807
 Frc consts  --      0.0004                 0.0014                 0.0012
 IR Inten    --      0.7143                 0.3803                 1.8122

                      4                      5                      6
                      A                      A                      A
 Frequencies --     30.2287                36.6082                44.9414
 Red. masses --      5.7295                 4.2550                 6.3731
 Frc consts  --      0.0031                 0.0034                 0.0076
 IR Inten    --      0.0000                 0.0000                 0.0000

                      7                      8                      9
                      A                      A                      A
 Frequencies --     56.9525                70.2035                81.6714
 Red. masses --      5.9546                 4.8602                 7.2834
 Frc consts  --      0.0114                 0.0141                 0.0286
 IR Inten    --      5.8496                 0.0000                13.7441

                     10                     11                     12
                      A                      A                      A
 Frequencies --    101.5094               106.4645               127.8118
 Red. masses --      6.0213                 6.3503                 6.1092
 Frc consts  --      0.0366                 0.0424                 0.0588
 IR Inten    --      0.0000                11.2007                 0.0000

                     13                     14                     15
                      A                      A                      A
 Frequencies --    143.4712               200.8880               216.3409
 Red. masses --      6.8422                 3.9946                 4.3810
 Frc consts  --      0.0830                 0.0950                 0.1208
 IR Inten    --      8.3332                 0.0000                20.7610

                     16                     17                     18
                      A                      A                      A
 Frequencies --    218.4604               241.1960               256.7608
 Red. masses --      5.0567                 3.7293                 6.5668
 Frc consts  --      0.1422                 0.1278                 0.2551
 IR Inten    --      0.0000                13.8328                 1.5103

                     19                     20                     21
                      A                      A                      A
 Frequencies --    257.8078               284.4636               324.2501
 Red. masses --      5.0925                 5.2323                 5.4180
 Frc consts  --      0.1994                 0.2495                 0.3356
 IR Inten    --      0.0000                 0.0000                 3.7981

                     22                     23                     24
                      A                      A                      A
 Frequencies --    334.1474               354.6039               409.1662
 Red. masses --      7.2764                 6.8081                 4.4238
 Frc consts  --      0.4787                 0.5044                 0.4364
 IR Inten    --      0.0000                 0.0000                19.5114

                     25                     26                     27
                      A                      A                      A
 Frequencies --    411.3642               411.3878               419.4229
 Red. masses --      2.8982                 2.9147                 3.4581
 Frc consts  --      0.2890                 0.2906                 0.3584
 IR Inten    --      0.0000                 0.4115                22.3363

                     28                     29                     30
                      A                      A                      A
 Frequencies --    443.1092               468.8437               502.2498
 Red. masses --      6.0500                 5.6570                 2.1967
 Frc consts  --      0.6999                 0.7326                 0.3265
 IR Inten    --     13.3615                 0.0000                26.2748

                     31                     32                     33
                      A                      A                      A
 Frequencies --    513.7928               518.8730               519.6038
 Red. masses --      2.7390                 3.0291                 3.5767
 Frc consts  --      0.4260                 0.4805                 0.5690
 IR Inten    --      0.0000                 0.0000                13.1246

                     34                     35                     36
                      A                      A                      A
 Frequencies --    525.6203               529.2985               542.6570
 Red. masses --      1.6317                 2.0203                 3.3808
 Frc consts  --      0.2656                 0.3335                 0.5866
 IR Inten    --      0.0000                83.7354                29.2966

                     37                     38                     39
                      A                      A                      A
 Frequencies --    632.3702               632.5153               645.8973
 Red. masses --      6.4885                 6.4885                 6.5614
 Frc consts  --      1.5288                 1.5294                 1.6128
 IR Inten    --      0.0000                 0.1281                 0.0000

                     40                     41                     42
                      A                      A                      A
 Frequencies --    659.0652               661.7542               700.9066
 Red. masses --      6.1193                 5.7917                 2.1994
 Frc consts  --      1.5661                 1.4943                 0.6366
 IR Inten    --      0.0000                16.3009                 0.0000

                     43                     44                     45
                      A                      A                      A
 Frequencies --    701.6012               704.2983               730.5288
 Red. masses --      1.8562                 3.6263                 3.1579
 Frc consts  --      0.5383                 1.0598                 0.9929
 IR Inten    --     70.8484                 0.0000                56.3053

                     46                     47                     48
                      A                      A                      A
 Frequencies --    732.4530               769.7009               769.7355
 Red. masses --      7.1765                 1.7467                 1.7477
 Frc consts  --      2.2684                 0.6097                 0.6101
 IR Inten    --      0.0000                 0.0000                70.1734

                     49                     50                     51
                      A                      A                      A
 Frequencies --    794.4887               846.3205               854.3891
 Red. masses --      5.5177                 5.2666                 3.8927
 Frc consts  --      2.0520                 2.2226                 1.6742
 IR Inten    --      0.0000                37.5575                 0.0000

                     52                     53                     54
                      A                      A                      A
 Frequencies --    855.6418               855.6641               859.9698
 Red. masses --      1.2517                 1.2646                 1.3405
 Frc consts  --      0.5399                 0.5455                 0.5841
 IR Inten    --      0.2095                 0.0000                 0.0000

                     55                     56                     57
                      A                      A                      A
 Frequencies --    875.4370               926.3231               926.4983
 Red. masses --      1.9765                 1.4459                 1.3626
 Frc consts  --      0.8925                 0.7310                 0.6891
 IR Inten    --     24.3477                10.5469                 0.0000

                     58                     59                     60
                      A                      A                      A
 Frequencies --    929.4951               939.0533               964.7173
 Red. masses --      4.4629                 5.9306                 1.5771
 Frc consts  --      2.2717                 3.0813                 0.8648
 IR Inten    --    135.2145                 0.0000                 0.0000

                     61                     62                     63
                      A                      A                      A
 Frequencies --    964.7243               987.0774               988.7134
 Red. masses --      1.5754                 1.3480                 1.3547
 Frc consts  --      0.8639                 0.7738                 0.7803
 IR Inten    --     30.0180                 0.0000                 0.0070

                     64                     65                     66
                      A                      A                      A
 Frequencies --    988.7158               996.7719              1006.5534
 Red. masses --      1.3547                 1.3739                 1.3076
 Frc consts  --      0.7803                 0.8043                 0.7806
 IR Inten    --      0.0000                 8.3884                 1.4543

                     67                     68                     69
                      A                      A                      A
 Frequencies --   1006.5556              1013.8780              1013.9006
 Red. masses --      1.3076                 6.2835                 6.2848
 Frc consts  --      0.7806                 3.8056                 3.8066
 IR Inten    --      0.0000                 0.4540                 0.0000

                     70                     71                     72
                      A                      A                      A
 Frequencies --   1036.8350              1048.5347              1048.5993
 Red. masses --      3.0129                 2.1540                 2.1425
 Frc consts  --      1.9083                 1.3953                 1.3880
 IR Inten    --     24.7466                 0.0000                17.3491

                     73                     74                     75
                      A                      A                      A
 Frequencies --   1077.1079              1080.7636              1109.9741
 Red. masses --      5.5447                 4.1234                 1.7039
 Frc consts  --      3.7900                 2.8377                 1.2368
 IR Inten    --      0.0000                 6.4891                 0.0000

                     76                     77                     78
                      A                      A                      A
 Frequencies --   1110.7991              1147.5849              1161.9908
 Red. masses --      1.6837                 1.5284                 4.3998
 Frc consts  --      1.2240                 1.1859                 3.5002
 IR Inten    --     35.3353               205.1475                 0.0000

                     79                     80                     81
                      A                      A                      A
 Frequencies --   1165.6565              1192.0827              1192.0839
 Red. masses --      2.8420                 1.1250                 1.1250
 Frc consts  --      2.2752                 0.9419                 0.9419
 IR Inten    --    434.8878                 0.0000                 0.1091

                     82                     83                     84
                      A                      A                      A
 Frequencies --   1207.7921              1207.8134              1217.2234
 Red. masses --      1.1471                 1.1494                 1.1805
 Frc consts  --      0.9859                 0.9879                 1.0305
 IR Inten    --     14.4626                 0.0000                 0.0000

                     85                     86                     87
                      A                      A                      A
 Frequencies --   1249.5023              1249.6325              1257.9443
 Red. masses --      2.3462                 2.4833                 2.5397
 Frc consts  --      2.1582                 2.2847                 2.3679
 IR Inten    --     27.9269                 0.0000               985.4040

                     88                     89                     90
                      A                      A                      A
 Frequencies --   1258.4809              1330.4058              1330.4521
 Red. masses --      3.0415                 3.5395                 3.4910
 Frc consts  --      2.8381                 3.6911                 3.6408
 IR Inten    --      0.0000                 5.4061                 0.0000

                     91                     92                     93
                      A                      A                      A
 Frequencies --   1334.1311              1338.4006              1357.4876
 Red. masses --     10.4118                 1.3032                 1.7251
 Frc consts  --     10.9188                 1.3754                 1.8730
 IR Inten    --     11.6489                 0.0000                 6.3482

                     94                     95                     96
                      A                      A                      A
 Frequencies --   1357.5272              1393.1019              1394.7101
 Red. masses --      1.7185                 1.4195                 1.4386
 Frc consts  --      1.8660                 1.6232                 1.6487
 IR Inten    --      0.0000                62.3635                 0.0000

                     97                     98                     99
                      A                      A                      A
 Frequencies --   1432.2630              1478.8761              1478.9648
 Red. masses --      2.6841                 2.2175                 2.2191
 Frc consts  --      3.2441                 2.8574                 2.8598
 IR Inten    --      5.1459                19.8854                 0.0000

                    100                    101                    102
                      A                      A                      A
 Frequencies --   1522.6276              1523.6476              1533.7289
 Red. masses --      2.0430                 2.1121                 2.2849
 Frc consts  --      2.7907                 2.8889                 3.1667
 IR Inten    --    161.5226                 0.0000                37.3711

                    103                    104                    105
                      A                      A                      A
 Frequencies --   1555.3532              1555.5881              1600.6974
 Red. masses --      1.8743                 1.8449                 6.4691
 Frc consts  --      2.6714                 2.6303                 9.7659
 IR Inten    --    801.0021                 0.0000                 0.0000

                    106                    107                    108
                      A                      A                      A
 Frequencies --   1613.2253              1613.2499              1640.5826
 Red. masses --      5.3567                 5.3608                 5.2472
 Frc consts  --      8.2137                 8.2202                 8.3210
 IR Inten    --      0.0000                 1.5410                 0.0000

                    109                    110                    111
                      A                      A                      A
 Frequencies --   1640.7055              1648.9391              1675.1056
 Red. masses --      5.2395                 5.5999                 7.5221
 Frc consts  --      8.3100                 8.9710                12.4358
 IR Inten    --     11.2438                 0.0000                10.0903

                    112                    113                    114
                      A                      A                      A
 Frequencies --   1675.5111              1755.1399              1757.3644
 Red. masses --      7.5005                11.3326                11.0297
 Frc consts  --     12.4061                20.5685                20.0695
 IR Inten    --      0.0000               613.4300                 0.0000

                    115                    116                    117
                      A                      A                      A
 Frequencies --   3001.0068              3001.0252              3153.5511
 Red. masses --      1.0860                 1.0860                 1.0875
 Frc consts  --      5.7626                 5.7627                 6.3723
 IR Inten    --      0.0000               105.7875                 0.0000

                    118                    119                    120
                      A                      A                      A
 Frequencies --   3153.5519              3164.8559              3164.8595
 Red. masses --      1.0875                 1.0875                 1.0875
 Frc consts  --      6.3723                 6.4178                 6.4178
 IR Inten    --     14.2662                 0.2433                 0.0000

                    121                    122                    123
                      A                      A                      A
 Frequencies --   3167.8131              3169.2964              3175.9622
 Red. masses --      1.0892                 1.0890                 1.0916
 Frc consts  --      6.4398                 6.4447                 6.4871
 IR Inten    --     25.4462                 0.0000                 0.0000

                    124                    125                    126
                      A                      A                      A
 Frequencies --   3175.9649              3187.7352              3187.7494
 Red. masses --      1.0916                 1.0959                 1.0959
 Frc consts  --      6.4871                 6.5615                 6.5615
 IR Inten    --     35.8724                40.5972                 0.0000

                    127                    128                    129
                      A                      A                      A
 Frequencies --   3197.2743              3197.2814              3197.6135
 Red. masses --      1.0952                 1.0952                 1.0930
 Frc consts  --      6.5963                 6.5963                 6.5846
 IR Inten    --     14.2937                 0.0000                 4.3034

                    130                    131                    132
                      A                      A                      A
 Frequencies --   3198.8816              3496.1808              3496.2637
 Red. masses --      1.0937                 1.0763                 1.0763
 Frc consts  --      6.5941                 7.7511                 7.7513
 IR Inten    --      0.0000                21.3184                 0.0000

 - Thermochemistry -
 -------------------
 Temperature   298.150 Kelvin.  Pressure   1.00000 Atm.
 Atom     1 has atomic number  6 and mass  12.00000

 Molecular mass:   370.14298 amu.
 Principal axes and moments of inertia in atomic units:
                           1         2         3
     Eigenvalues --  1655.73896********************
           X            0.25957   0.92295   0.28424
           Y            0.96219  -0.27232   0.00556
           Z           -0.08254  -0.27205   0.95874
 This molecule is an asymmetric top.
 Rotational symmetry number  1.
 Warning -- assumption of classical behavior for rotation
           may cause significant error
 Rotational temperatures (Kelvin)      0.05231     0.00167     0.00162
 Rotational constants (GHZ):           1.08999     0.03474     0.03378
 Zero-point vibrational energy     937496.9 (Joules/Mol)
                                  224.06714 (Kcal/Mol)
 Warning -- explicit consideration of  36 degrees of freedom as
           vibrations may cause significant error
 Vibrational temperatures:     14.24    27.67    33.34    43.49    52.67
          (Kelvin)             64.66    81.94   101.01   117.51   146.05
                              153.18   183.89   206.42   289.03   311.27
                              314.32   347.03   369.42   370.93   409.28
                              466.52   480.76   510.20   588.70   591.86
                              591.90   603.46   637.54   674.56   722.63
                              739.23   746.54   747.59   756.25   761.54
                              780.76   909.84   910.05   929.30   948.25
                              952.12  1008.45  1009.45  1013.33  1051.07
                             1053.84  1107.43  1107.48  1143.09  1217.67
                             1229.28  1231.08  1231.11  1237.30  1259.56
                             1332.77  1333.02  1337.34  1351.09  1388.01
                             1388.02  1420.18  1422.54  1422.54  1434.13
                             1448.21  1448.21  1458.74  1458.78  1491.77
                             1508.61  1508.70  1549.72  1554.98  1597.01
                             1598.19  1651.12  1671.85  1677.12  1715.14
                             1715.14  1737.74  1737.77  1751.31  1797.76
                             1797.94  1809.90  1810.67  1914.16  1914.22
                             1919.52  1925.66  1953.12  1953.18  2004.36
                             2006.68  2060.71  2127.77  2127.90  2190.72
                             2192.19  2206.69  2237.81  2238.14  2303.05
                             2321.07  2321.11  2360.43  2360.61  2372.46
                             2410.10  2410.69  2525.25  2528.46  4317.78
                             4317.81  4537.26  4537.26  4553.52  4553.53
                             4557.78  4559.91  4569.50  4569.51  4586.44
                             4586.46  4600.16  4600.17  4600.65  4602.48
                             5030.22  5030.34

 Zero-point correction=                           0.357074 (Hartree/Particle)
 Thermal correction to Energy=                    0.381146
 Thermal correction to Enthalpy=                  0.382090
 Thermal correction to Gibbs Free Energy=         0.298247
 Sum of electronic and zero-point Energies=          -1218.600800
 Sum of electronic and thermal Energies=             -1218.576727
 Sum of electronic and thermal Enthalpies=           -1218.575783
 Sum of electronic and thermal Free Energies=        -1218.659626

                     E (Thermal)             CV                S
                      KCal/Mol        Cal/Mol-Kelvin    Cal/Mol-Kelvin
 Total                  239.173             91.971            176.463
 Electronic               0.000              0.000              0.000
 Translational            0.889              2.981             43.619
 Rotational               0.889              2.981             36.772
 Vibrational            237.395             86.009             96.071
 Vibration     1          0.593              1.987              8.032
 Vibration     2          0.593              1.986              6.712
 Vibration     3          0.593              1.985              6.342
 Vibration     4          0.594              1.984              5.814
 Vibration     5          0.594              1.982              5.435
 Vibration     6          0.595              1.979              5.028
 Vibration     7          0.596              1.975              4.560
 Vibration     8          0.598              1.968              4.148
 Vibration     9          0.600              1.962              3.850
 Vibration    10          0.604              1.948              3.425
 Vibration    11          0.605              1.944              3.332
 Vibration    12          0.611              1.925              2.979
 Vibration    13          0.616              1.910              2.757
 Vibration    14          0.638              1.839              2.125
 Vibration    15          0.645              1.816              1.990
 Vibration    16          0.646              1.813              1.972
 Vibration    17          0.658              1.777              1.794
 Vibration    18          0.666              1.751              1.684
 Vibration    19          0.667              1.750              1.677
 Vibration    20          0.683              1.702              1.507
 Vibration    21          0.709              1.627              1.289
 Vibration    22          0.716              1.607              1.240
 Vibration    23          0.730              1.566              1.146
 Vibration    24          0.774              1.450              0.930
 Vibration    25          0.775              1.446              0.922
 Vibration    26          0.775              1.446              0.922
 Vibration    27          0.782              1.428              0.894
 Vibration    28          0.803              1.376              0.817
 Vibration    29          0.826              1.319              0.741
 Vibration    30          0.858              1.245              0.653
 Vibration    31          0.869              1.219              0.625
 Vibration    32          0.874              1.208              0.613
 Vibration    33          0.875              1.207              0.611
 Vibration    34          0.881              1.193              0.597
 Vibration    35          0.884              1.185              0.589
 Vibration    36          0.898              1.156              0.560

 Normal termination of Gaussian 16 at Sat Oct 17 09:03:39 2020.
