 Gaussian 16, Revision C.01,
 Gaussian 16:  ES64L-G16RevC.01  3-Jul-2019

 ----------------------------------------------------------------------
 #P B3LYP/6-311++G(d,p) EmpiricalDispersion=GD3 freq(noraman) SCF=YQC N
 oSymm
 ----------------------------------------------------------------------

 ------------------------------------------
 Restart from Pyrene_PrimaryAmine_Imide.log
 ------------------------------------------
 Symbolic Z-matrix:
 Charge =  0 Multiplicity = 1

                          Input orientation:
 ---------------------------------------------------------------------
 Center     Atomic      Atomic             Coordinates (Angstroms)
 Number     Number       Type             X           Y           Z
 ---------------------------------------------------------------------
      1          6           0       -0.002472    3.510907   -0.007726
      2          6           0       -1.188243    2.823440   -0.261519
      3          6           0       -1.207768    1.424423   -0.253125
      4          6           0       -0.000436    0.711122   -0.001567
      5          6           0        1.205861    1.427290    0.246793
      6          6           0        1.184307    2.826299    0.248955
      7          1           0       -2.101205    3.372503   -0.448229
      8          1           0        2.096492    3.377548    0.433079
      9          6           0        0.000606   -0.711133    0.001564
     10          6           0       -1.205692   -1.427301   -0.246794
     11          6           0       -1.184138   -2.826310   -0.248956
     12          6           0        0.002641   -3.510918    0.007722
     13          6           0        1.188412   -2.823450    0.261518
     14          6           0        1.207937   -1.424434    0.253124
     15          1           0       -2.096323   -3.377559   -0.433076
     16          1           0        2.101373   -3.372513    0.448231
     17          6           0        2.409808    0.682316    0.494069
     18          6           0        2.410793   -0.676618    0.497100
     19          1           0        3.327187    1.231480    0.676850
     20          1           0        3.328969   -1.223631    0.682315
     21          6           0       -2.410624    0.676607   -0.497099
     22          6           0       -2.409639   -0.682326   -0.494068
     23          1           0       -3.328800    1.223620   -0.682313
     24          1           0       -3.327019   -1.231491   -0.676848
     25          6           0        0.586769    7.147269   -0.382450
     26          6           0        1.202608    8.326076   -0.769457
     27          1           0        2.122486    8.310703   -1.341141
     28          6           0        0.588552    9.524820   -0.391201
     29          1           0        1.038900   10.469346   -0.673792
     30          6           0       -0.599508    9.525949    0.348334
     31          1           0       -1.050716   10.471333    0.626657
     32          6           0       -1.212455    8.328368    0.732032
     33          1           0       -2.132309    8.314745    1.303800
     34          6           0       -0.595548    7.148383    0.350346
     35          6           0       -0.998307    5.737627    0.604809
     36          6           0        0.990855    5.735751   -0.630483
     37          7           0       -0.003336    4.937596   -0.011023
     38          8           0        1.955625    5.326362   -1.228031
     39          8           0       -1.962549    5.330129    1.204507
     40          6           0       -0.586627   -7.147273    0.382452
     41          6           0       -1.202478   -8.326074    0.769459
     42          1           0       -2.122357   -8.310692    1.341143
     43          6           0       -0.588435   -9.524824    0.391202
     44          1           0       -1.038793  -10.469346    0.673793
     45          6           0        0.599624   -9.525966   -0.348333
     46          1           0        1.050822  -10.471354   -0.626656
     47          6           0        1.212584   -8.328392   -0.732031
     48          1           0        2.132437   -8.314778   -1.303800
     49          6           0        0.595689   -7.148400   -0.350345
     50          6           0        0.998463   -5.737648   -0.604809
     51          6           0       -0.990698   -5.735751    0.630484
     52          7           0        0.003500   -4.937607    0.011023
     53          8           0       -1.955468   -5.326351    1.228026
     54          8           0        1.962706   -5.330162   -1.204512
 ---------------------------------------------------------------------

 SCF Done:  E(RB3LYP) =  -1640.02491668     a.u. after    8 cycles
 SCF Done:  E(RB3LYP) =  -1640.02494338     A.U. after   10 cycles

 Alpha  occ. eigenvalues --  -19.13276 -19.13276 -19.13275 -19.13275 -14.38209
 Alpha  occ. eigenvalues --  -14.38209 -10.30990 -10.30990 -10.30989 -10.30989
 Alpha  occ. eigenvalues --  -10.23184 -10.23184 -10.21479 -10.21479 -10.21424
 Alpha  occ. eigenvalues --  -10.21424 -10.21285 -10.21285 -10.21282 -10.21282
 Alpha  occ. eigenvalues --  -10.21170 -10.21170 -10.21120 -10.21120 -10.19480
 Alpha  occ. eigenvalues --  -10.19479 -10.19477 -10.19476 -10.19247 -10.19202
 Alpha  occ. eigenvalues --  -10.18599 -10.18599 -10.18598 -10.18598 -10.18461
 Alpha  occ. eigenvalues --  -10.18460 -10.18390 -10.18390  -1.09050  -1.09050
 Alpha  occ. eigenvalues --   -1.07337  -1.07337  -0.98116  -0.98110  -0.90859
 Alpha  occ. eigenvalues --   -0.90178  -0.89622  -0.86509  -0.84137  -0.83143
 Alpha  occ. eigenvalues --   -0.80973  -0.78947  -0.78947  -0.78493  -0.78020
 Alpha  occ. eigenvalues --   -0.75765  -0.74377  -0.72708  -0.69310  -0.68668
 Alpha  occ. eigenvalues --   -0.68517  -0.66834  -0.65246  -0.63428  -0.63421
 Alpha  occ. eigenvalues --   -0.63025  -0.61966  -0.61535  -0.60463  -0.58482
 Alpha  occ. eigenvalues --   -0.55909  -0.54086  -0.53893  -0.53570  -0.52470
 Alpha  occ. eigenvalues --   -0.52119  -0.51987  -0.50394  -0.50209  -0.50110
 Alpha  occ. eigenvalues --   -0.49209  -0.49166  -0.48229  -0.47407  -0.47151
 Alpha  occ. eigenvalues --   -0.47101  -0.47065  -0.45811  -0.45625  -0.45586
 Alpha  occ. eigenvalues --   -0.45510  -0.44719  -0.44597  -0.43413  -0.43321
 Alpha  occ. eigenvalues --   -0.42407  -0.41559  -0.41423  -0.40971  -0.40621
 Alpha  occ. eigenvalues --   -0.40274  -0.40179  -0.39702  -0.39625  -0.39593
 Alpha  occ. eigenvalues --   -0.38956  -0.38880  -0.38582  -0.37847  -0.35788
 Alpha  occ. eigenvalues --   -0.35285  -0.33816  -0.33465  -0.31297  -0.30882
 Alpha  occ. eigenvalues --   -0.30634  -0.29777  -0.29256  -0.29197  -0.29195
 Alpha  occ. eigenvalues --   -0.28548  -0.28519  -0.28478  -0.27569  -0.26536
 Alpha  occ. eigenvalues --   -0.23245  -0.21121
 Alpha virt. eigenvalues --   -0.09786  -0.09783  -0.07032  -0.06710  -0.06089
 Alpha virt. eigenvalues --   -0.03672  -0.02265  -0.01440  -0.01406  -0.00627
 Alpha virt. eigenvalues --    0.00085   0.00476   0.00501   0.00701   0.00724

 Mulliken charges:
               1
     1  C   -0.276162
     2  C   -0.063594
     3  C    0.500998
     4  C   -0.293668
     5  C    0.501043
     6  C   -0.063603
     7  H    0.186554
     8  H    0.186545
     9  C   -0.293669
    10  C    0.501047
    11  C   -0.063605
    12  C   -0.276159
    13  C   -0.063593
    14  C    0.500992
    15  H    0.186544
    16  H    0.186554
    17  C   -0.433208
    18  C   -0.433417
    19  H    0.140585
    20  H    0.140583
    21  C   -0.433410
    22  C   -0.433202
    23  H    0.140583
    24  H    0.140586
    25  C    0.564429
    26  C   -0.426872
    27  H    0.199437
    28  C   -0.361234
    29  H    0.181913
    30  C   -0.361161
    31  H    0.181916
    32  C   -0.426881
    33  H    0.199437
    34  C    0.564211
    35  C   -0.147806
    36  C   -0.148043
    37  N    0.393772
    38  O   -0.252862
    39  O   -0.252918
    40  C    0.564424
    41  C   -0.426873
    42  H    0.199438
    43  C   -0.361239
    44  H    0.181913
    45  C   -0.361158
    46  H    0.181916
    47  C   -0.426879
    48  H    0.199437
    49  C    0.564216
    50  C   -0.147797
    51  C   -0.148051
    52  N    0.393772
    53  O   -0.252861
    54  O   -0.252919
 Sum of Mulliken charges =   0.00000

 Dipole moment (field-independent basis, Debye):
    X=             -0.0000    Y=              0.0000    Z=              0.0000  Tot=              0.0000
 Quadrupole moment (field-independent basis, Debye-Ang):
   XX=           -215.1446   YY=           -106.2344   ZZ=           -226.8666
   XY=             -0.0277   XZ=             12.0402   YZ=             -0.2708

  Exact polarizability:     368.382      -0.334     781.486     -33.373      -1.268     218.602
 Approx polarizability:     733.404      -0.397    1028.129     -84.252      -1.449     391.619

                      1                      2                      3
                      A                      A                      A
 Frequencies --     13.6948                26.1869                29.5241
 Red. masses --      6.7880                 7.9972                 6.5742
 Frc consts  --      0.0008                 0.0032                 0.0034
 IR Inten    --      1.0442                 0.4595                 1.8412

                      4                      5                      6
                      A                      A                      A
 Frequencies --     32.3751                40.7266                57.4217
 Red. masses --      7.1021                 5.9276                 7.2798
 Frc consts  --      0.0044                 0.0058                 0.0141
 IR Inten    --      0.0000                 0.0000                 0.0000

                      7                      8                      9
                      A                      A                      A
 Frequencies --     81.4861               124.7888               134.7609
 Red. masses --      8.1689                 9.3779                 5.6039
 Frc consts  --      0.0320                 0.0860                 0.0600
 IR Inten    --      3.1789                 5.5882                 0.0000

                     10                     11                     12
                      A                      A                      A
 Frequencies --    135.5036               138.4114               141.1085
 Red. masses --      5.0781                 8.7244                 8.2213
 Frc consts  --      0.0549                 0.0985                 0.0964
 IR Inten    --      0.3106                 0.0000                 0.0000

                     13                     14                     15
                      A                      A                      A
 Frequencies --    160.7369               167.6468               172.5169
 Red. masses --      4.3643                 7.6031                 7.0844
 Frc consts  --      0.0664                 0.1259                 0.1242
 IR Inten    --      1.7525                 0.0000                 2.7105

                     16                     17                     18
                      A                      A                      A
 Frequencies --    202.3798               205.0602               236.7357
 Red. masses --      4.4015                 6.8895                 6.2377
 Frc consts  --      0.1062                 0.1707                 0.2060
 IR Inten    --      3.6202                 0.0000                 2.6310

                     19                     20                     21
                      A                      A                      A
 Frequencies --    253.6729               254.6321               258.5488
 Red. masses --      8.3846                 3.5516                 7.5126
 Frc consts  --      0.3179                 0.1357                 0.2959
 IR Inten    --     16.1886                 0.0000                 0.0000

                     22                     23                     24
                      A                      A                      A
 Frequencies --    271.3918               325.1386               325.4180
 Red. masses --      9.4143                 7.0635                 7.7928
 Frc consts  --      0.4085                 0.4400                 0.4862
 IR Inten    --      3.1196                 1.3051                 0.0000

                     25                     26                     27
                      A                      A                      A
 Frequencies --    364.4817               364.7757               401.8353
 Red. masses --     10.8857                10.3601                 3.5244
 Frc consts  --      0.8520                 0.8122                 0.3353
 IR Inten    --      0.0000                29.3467                 0.9393

                     28                     29                     30
                      A                      A                      A
 Frequencies --    404.0529               414.5416               422.9566
 Red. masses --      4.3298                 3.1215                 4.0184
 Frc consts  --      0.4165                 0.3160                 0.4235
 IR Inten    --      0.0000                 2.7813                 0.0000

                     31                     32                     33
                      A                      A                      A
 Frequencies --    463.6926               463.7269               473.4682
 Red. masses --      4.8347                 4.8401                 5.9039
 Frc consts  --      0.6125                 0.6132                 0.7798
 IR Inten    --      0.0168                 0.0000                 0.2066

                     34                     35                     36
                      A                      A                      A
 Frequencies --    477.7881               481.0902               504.2173
 Red. masses --      7.8157                 8.8542                 4.0930
 Frc consts  --      1.0512                 1.2074                 0.6131
 IR Inten    --      0.0000                 0.0000                 0.0000

                     37                     38                     39
                      A                      A                      A
 Frequencies --    516.0727               533.6560               535.5552
 Red. masses --      5.0791                 3.0338                 5.5103
 Frc consts  --      0.7970                 0.5091                 0.9312
 IR Inten    --      9.4188                 0.0000                 0.0000

                     40                     41                     42
                      A                      A                      A
 Frequencies --    537.5347               542.1002               577.6788
 Red. masses --      7.4422                 6.0030                10.0919
 Frc consts  --      1.2670                 1.0394                 1.9842
 IR Inten    --     20.1968                 0.0000                 1.6096

                     43                     44                     45
                      A                      A                      A
 Frequencies --    579.1269               582.0740               605.6726
 Red. masses --      9.2802                 6.1534                 4.4588
 Frc consts  --      1.8338                 1.2284                 0.9637
 IR Inten    --      0.0000                 1.6308                 1.6298

                     46                     47                     48
                      A                      A                      A
 Frequencies --    614.1382               635.9195               657.9679
 Red. masses --      7.9436                 3.7066                10.7532
 Frc consts  --      1.7652                 0.8831                 2.7428
 IR Inten    --      0.0000                 0.0000               151.8106

                     49                     50                     51
                      A                      A                      A
 Frequencies --    677.3332               678.8914               678.9915
 Red. masses --      4.2262                 4.9353                 4.8551
 Frc consts  --      1.1424                 1.3402                 1.3188
 IR Inten    --      1.1045                 0.0000                 0.4683

                     52                     53                     54
                      A                      A                      A
 Frequencies --    693.8115               709.5150               722.0096
 Red. masses --      7.4651                 3.5424                 6.6527
 Frc consts  --      2.1172                 1.0507                 2.0433
 IR Inten    --      0.0000                19.0801                 0.0000

                     55                     56                     57
                      A                      A                      A
 Frequencies --    725.4445               727.2668               728.4251
 Red. masses --      3.8893                 2.3986                 2.7639
 Frc consts  --      1.2060                 0.7475                 0.8640
 IR Inten    --     24.2005                 0.0000               141.0352

                     58                     59                     60
                      A                      A                      A
 Frequencies --    747.0404               761.1173               788.8218
 Red. masses --      6.9200                 6.8920                 6.5647
 Frc consts  --      2.2753                 2.3523                 2.4067
 IR Inten    --     17.2382                 0.0000                 0.0000

                     61                     62                     63
                      A                      A                      A
 Frequencies --    797.9740               798.2422               798.6540
 Red. masses --      6.0925                 6.0684                 2.5053
 Frc consts  --      2.2857                 2.2782                 0.9415
 IR Inten    --      4.8353                 0.0000                 0.0000

                     64                     65                     66
                      A                      A                      A
 Frequencies --    800.1659               804.6155               809.3727
 Red. masses --      1.8140                 3.3528                 1.3436
 Frc consts  --      0.6843                 1.2789                 0.5186
 IR Inten    --     23.9864                 0.0000                 0.0000

                     67                     68                     69
                      A                      A                      A
 Frequencies --    812.7148               822.9781               880.0782
 Red. masses --      1.5690                 5.2444                 2.0150
 Frc consts  --      0.6106                 2.0928                 0.9196
 IR Inten    --     17.2935                 0.9831                 0.0000

                     70                     71                     72
                      A                      A                      A
 Frequencies --    885.6082               887.9123               899.3942
 Red. masses --      3.0472                 1.4141                 3.7667
 Frc consts  --      1.4081                 0.6569                 1.7952
 IR Inten    --     94.8530                 1.8652                 0.0000

                     73                     74                     75
                      A                      A                      A
 Frequencies --    902.4049               903.4718               907.6707
 Red. masses --      2.5544                 1.4900                 1.3663
 Frc consts  --      1.2256                 0.7166                 0.6632
 IR Inten    --     37.1392                 0.0000                 0.4316

                     76                     77                     78
                      A                      A                      A
 Frequencies --    907.6970               968.5980               979.7572
 Red. masses --      1.3670                 7.2415                 5.7861
 Frc consts  --      0.6636                 4.0028                 3.2724
 IR Inten    --      0.0001                 0.0000                26.8932

                     79                     80                     81
                      A                      A                      A
 Frequencies --    983.4095               983.4323               985.1945
 Red. masses --      1.3994                 1.3993                 1.3094
 Frc consts  --      0.7973                 0.7974                 0.7488
 IR Inten    --      2.0202                 0.0005                 0.2223

                     82                     83                     84
                      A                      A                      A
 Frequencies --    987.5126              1010.4872              1012.5811
 Red. masses --      1.2983                 6.3945                 1.3237
 Frc consts  --      0.7460                 3.8470                 0.7997
 IR Inten    --      0.0000                15.5482                 0.0000

                     85                     86                     87
                      A                      A                      A
 Frequencies --   1012.5858              1016.4446              1031.5983
 Red. masses --      1.3239                 7.4686                 2.1289
 Frc consts  --      0.7998                 4.5463                 1.3348
 IR Inten    --      0.0171                15.0375                 0.0000

                     88                     89                     90
                      A                      A                      A
 Frequencies --   1032.5879              1091.4182              1092.8114
 Red. masses --      2.0815                 3.5799                 3.3356
 Frc consts  --      1.3076                 2.5125                 2.3470
 IR Inten    --      2.1237                 0.0000               134.1828

                     91                     92                     93
                      A                      A                      A
 Frequencies --   1114.4456              1115.8832              1130.6342
 Red. masses --      3.9936                 4.2928                 2.2414
 Frc consts  --      2.9224                 3.1494                 1.6881
 IR Inten    --      0.0000                84.3866                 0.0000

                     94                     95                     96
                      A                      A                      A
 Frequencies --   1144.1962              1148.7988              1178.3947
 Red. masses --      2.8370                 1.9612                 1.4178
 Frc consts  --      2.1883                 1.5250                 1.1599
 IR Inten    --      0.0000                 9.6504                 0.0000

                     97                     98                     99
                      A                      A                      A
 Frequencies --   1189.5459              1190.5276              1191.1591
 Red. masses --      1.1650                 1.1695                 1.6460
 Frc consts  --      0.9712                 0.9766                 1.3760
 IR Inten    --     30.5728                 0.0000                 3.2250

                    100                    101                    102
                      A                      A                      A
 Frequencies --   1192.8924              1194.0621              1220.1970
 Red. masses --      2.1981                 1.8176                 2.2751
 Frc consts  --      1.8429                 1.5269                 1.9958
 IR Inten    --      0.0000                 3.1016                 0.0000

                    103                    104                    105
                      A                      A                      A
 Frequencies --   1220.6628              1239.6916              1276.3124
 Red. masses --      2.3785                 1.7526                 1.4831
 Frc consts  --      2.0880                 1.5869                 1.4235
 IR Inten    --     48.7418                 2.6892                 0.0000

                    106                    107                    108
                      A                      A                      A
 Frequencies --   1287.8674              1288.1743              1307.0165
 Red. masses --      5.1590                 2.3742                 1.5628
 Frc consts  --      5.0415                 2.3213                 1.5729
 IR Inten    --      0.0001               205.7052                 0.1012

                    109                    110                    111
                      A                      A                      A
 Frequencies --   1307.0170              1349.0843              1361.3596
 Red. masses --      1.5628                 3.8871                 2.8750
 Frc consts  --      1.5730                 4.1683                 3.1394
 IR Inten    --      0.6736                17.9416                 0.0000

                    112                    113                    114
                      A                      A                      A
 Frequencies --   1376.6243              1382.1559              1388.4762
 Red. masses --      4.7511                 9.0710                 5.8269
 Frc consts  --      5.3049                10.2098                 6.6186
 IR Inten    --   1304.0611                 0.0000               528.0218

                    115                    116                    117
                      A                      A                      A
 Frequencies --   1390.9411              1406.1563              1415.4136
 Red. masses --      6.5208                 4.2362                 2.2330
 Frc consts  --      7.4331                 4.9350                 2.6358
 IR Inten    --      0.0000                 0.0000                 0.0000

                    118                    119                    120
                      A                      A                      A
 Frequencies --   1437.3324              1447.4455              1478.9645
 Red. masses --      2.7118                 6.9964                 5.2569
 Frc consts  --      3.3008                 8.6363                 6.7747
 IR Inten    --      5.6526                 0.0000                85.0623

                    121                    122                    123
                      A                      A                      A
 Frequencies --   1492.5731              1495.2131              1495.3960
 Red. masses --      2.4329                 2.6814                 2.4100
 Frc consts  --      3.1933                 3.5319                 3.1753
 IR Inten    --    202.0518                 8.5775                 0.0000

                    124                    125                    126
                      A                      A                      A
 Frequencies --   1495.6510              1495.9636              1496.6233
 Red. masses --      2.5744                 2.5867                 6.1386
 Frc consts  --      3.3930                 3.4107                 8.1011
 IR Inten    --      0.0000                10.5283                 5.4376

                    127                    128                    129
                      A                      A                      A
 Frequencies --   1513.7878              1609.7258              1623.3850
 Red. masses --      4.1135                 4.1900                 8.0438
 Frc consts  --      5.5538                 6.3969                12.4898
 IR Inten    --      0.0000                 0.0000                 0.0000

                    130                    131                    132
                      A                      A                      A
 Frequencies --   1640.2086              1643.6722              1646.0176
 Red. masses --      6.3974                 5.9628                 6.8664
 Frc consts  --     10.1404                 9.4914                10.9610
 IR Inten    --      4.3616               144.1320                 0.0013

                    133                    134                    135
                      A                      A                      A
 Frequencies --   1646.0533              1647.8584              1649.3573
 Red. masses --      6.8637                 7.3255                 6.6802
 Frc consts  --     10.9570                11.7200                10.7071
 IR Inten    --     29.2772                 0.0000                19.5528

                    136                    137                    138
                      A                      A                      A
 Frequencies --   1671.0682              1775.1961              1776.0671
 Red. masses --      6.9500                12.8856                12.8832
 Frc consts  --     11.4347                23.9247                23.9437
 IR Inten    --      0.0000                 0.0000              1145.9791

                    139                    140                    141
                      A                      A                      A
 Frequencies --   1827.8965              1828.6174              3159.6522
 Red. masses --     13.0010                12.9997                 1.0866
 Frc consts  --     25.5936                25.6111                 6.3913
 IR Inten    --     53.2680                 0.0000                 0.0013

                    142                    143                    144
                      A                      A                      A
 Frequencies --   3159.7285              3171.0476              3171.0480
 Red. masses --      1.0865                 1.0873                 1.0873
 Frc consts  --      6.3913                 6.4415                 6.4415
 IR Inten    --      1.3758                 1.1470                 2.1420

                    145                    146                    147
                      A                      A                      A
 Frequencies --   3178.2100              3178.4975              3184.5788
 Red. masses --      1.0963                 1.0961                 1.0908
 Frc consts  --      6.5245                 6.5247                 6.5180
 IR Inten    --     33.6376                 0.0022                12.9910

                    148                    149                    150
                      A                      A                      A
 Frequencies --   3184.5817              3196.6214              3196.6237
 Red. masses --      1.0908                 1.0939                 1.0939
 Frc consts  --      6.5179                 6.5861                 6.5861
 IR Inten    --      0.2739                 1.9536                 2.8274

                    151                    152                    153
                      A                      A                      A
 Frequencies --   3200.0691              3200.0861              3205.5634
 Red. masses --      1.0966                 1.0966                 1.0911
 Frc consts  --      6.6165                 6.6166                 6.6058
 IR Inten    --     27.6240                 0.0692                 0.6629

                    154                    155                    156
                      A                      A                      A
 Frequencies --   3205.5693              3205.7333              3205.9231
 Red. masses --      1.0911                 1.0918                 1.0918
 Frc consts  --      6.6061                 6.6106                 6.6113
 IR Inten    --      1.7159                 1.7485                 0.0002

 - Thermochemistry -
 -------------------
 Temperature   298.150 Kelvin.  Pressure   1.00000 Atm.
 Atom     1 has atomic number  6 and mass  12.00000

 Molecular mass:   492.11101 amu.
 Principal axes and moments of inertia in atomic units:
                           1         2         3
     Eigenvalues --  3858.24677********************
           X           -0.00062   0.97768   0.21012
           Y            1.00000   0.00014   0.00232
           Z           -0.00224  -0.21012   0.97767
 This molecule is an asymmetric top.
 Rotational symmetry number  1.
 Warning -- assumption of classical behavior for rotation
           may cause significant error
 Rotational temperatures (Kelvin)      0.02245     0.00152     0.00145
 Rotational constants (GHZ):           0.46776     0.03169     0.03021
 Zero-point vibrational energy    1042158.7 (Joules/Mol)
                                  249.08191 (Kcal/Mol)
 Warning -- explicit consideration of  46 degrees of freedom as
           vibrations may cause significant error
 Vibrational temperatures:     19.70    37.68    42.48    46.58    58.60
          (Kelvin)             82.62   117.24   179.54   193.89   194.96
                              199.14   203.02   231.26   241.21   248.21
                              291.18   295.04   340.61   364.98   366.36
                              371.99   390.47   467.80   468.20   524.41
                              524.83   578.15   581.34   596.43   608.54
                              667.15   667.20   681.22   687.43   692.18
                              725.46   742.51   767.81   770.54   773.39
                              779.96   831.15   833.23   837.47   871.43
                              883.61   914.95   946.67   974.53   976.77
                              976.92   998.24  1020.83  1038.81  1043.75
                             1046.37  1048.04  1074.82  1095.08  1134.94
                             1148.11  1148.49  1149.09  1151.26  1157.66
                             1164.51  1169.32  1184.08  1266.24  1274.19
                             1277.51  1294.03  1298.36  1299.89  1305.94
                             1305.97  1393.60  1409.65  1414.91  1414.94
                             1417.48  1420.81  1453.87  1456.88  1456.89
                             1462.44  1484.24  1485.66  1570.31  1572.31
                             1603.44  1605.51  1626.73  1646.24  1652.87
                             1695.45  1711.49  1712.90  1713.81  1716.31
                             1717.99  1755.59  1756.26  1783.64  1836.33
                             1852.95  1853.40  1880.51  1880.51  1941.03
                             1958.69  1980.66  1988.61  1997.71  2001.25
                             2023.15  2036.46  2068.00  2082.55  2127.90
                             2147.48  2151.28  2151.54  2151.91  2152.36
                             2153.31  2178.00  2316.04  2335.69  2359.89
                             2364.88  2368.25  2368.30  2370.90  2373.06
                             2404.29  2554.11  2555.36  2629.94  2630.97
                             4546.03  4546.14  4562.43  4562.43  4572.74
                             4573.15  4581.90  4581.90  4599.23  4599.23
                             4604.19  4604.21  4612.09  4612.10  4612.34
                             4612.61

 Zero-point correction=                           0.396937 (Hartree/Particle)
 Thermal correction to Energy=                    0.423960
 Thermal correction to Enthalpy=                  0.424904
 Thermal correction to Gibbs Free Energy=         0.338077
 Sum of electronic and zero-point Energies=          -1639.628006
 Sum of electronic and thermal Energies=             -1639.600983
 Sum of electronic and thermal Enthalpies=           -1639.600039
 Sum of electronic and thermal Free Energies=        -1639.686867

                     E (Thermal)             CV                S
                      KCal/Mol        Cal/Mol-Kelvin    Cal/Mol-Kelvin
 Total                  266.039            110.282            182.744
 Electronic               0.000              0.000              0.000
 Translational            0.889              2.981             44.468
 Rotational               0.889              2.981             37.815
 Vibrational            264.261            104.321            100.461
 Vibration     1          0.593              1.986              7.386
 Vibration     2          0.593              1.985              6.099
 Vibration     3          0.593              1.984              5.861
 Vibration     4          0.594              1.983              5.678
 Vibration     5          0.594              1.981              5.223
 Vibration     6          0.596              1.975              4.544
 Vibration     7          0.600              1.962              3.855
 Vibration     8          0.610              1.928              3.025
 Vibration     9          0.613              1.919              2.877
 Vibration    10          0.613              1.918              2.866
 Vibration    11          0.614              1.915              2.826
 Vibration    12          0.615              1.912              2.789
 Vibration    13          0.622              1.890              2.541
 Vibration    14          0.624              1.882              2.462
 Vibration    15          0.626              1.876              2.408
 Vibration    16          0.639              1.837              2.111
 Vibration    17          0.640              1.833              2.087
 Vibration    18          0.656              1.784              1.827
 Vibration    19          0.665              1.757              1.705
 Vibration    20          0.665              1.755              1.698
 Vibration    21          0.667              1.748              1.672
 Vibration    22          0.675              1.726              1.587
 Vibration    23          0.709              1.625              1.284
 Vibration    24          0.710              1.625              1.283
 Vibration    25          0.738              1.545              1.103
 Vibration    26          0.738              1.545              1.102
 Vibration    27          0.767              1.466              0.956
 Vibration    28          0.769              1.461              0.948
 Vibration    29          0.778              1.439              0.911
 Vibration    30          0.785              1.420              0.882
 Vibration    31          0.821              1.331              0.755
 Vibration    32          0.821              1.331              0.755
 Vibration    33          0.830              1.309              0.728
 Vibration    34          0.834              1.299              0.716
 Vibration    35          0.837              1.292              0.707
 Vibration    36          0.859              1.241              0.648
 Vibration    37          0.871              1.214              0.619
 Vibration    38          0.889              1.176              0.579
 Vibration    39          0.891              1.171              0.575
 Vibration    40          0.893              1.167              0.571
 Vibration    41          0.897              1.157              0.561
 Vibration    42          0.934              1.080              0.490
 Vibration    43          0.936              1.076              0.487
 Vibration    44          0.939              1.070              0.482
 Vibration    45          0.964              1.020              0.440
 Vibration    46          0.974              1.002              0.426

 Optimization completed.
    -- Stationary point found.
 Normal termination of Gaussian 16 at Wed Jan 13 01:14:19 2021.
