 Gaussian 16, Revision C.01,
 Gaussian 16:  ES64L-G16RevC.01  3-Jul-2019

 ----------------------------------------------------------------------
 #P B3LYP/6-311++G(d,p) EmpiricalDispersion=GD3 freq(noraman) SCF=YQC N
 oSymm
 ----------------------------------------------------------------------

 --------------------------------------------
 Restart from 2_Phenyl_Aldehyde_Hydrazone.log
 --------------------------------------------
 Symbolic Z-matrix:
 Charge =  0 Multiplicity = 1

                          Input orientation:
 ---------------------------------------------------------------------
 Center     Atomic      Atomic             Coordinates (Angstroms)
 Number     Number       Type             X           Y           Z
 ---------------------------------------------------------------------
      1          6           0       -0.029369   -1.407899    0.008455
      2          6           0        0.029369    1.407899   -0.008455
      3          6           0       -1.212374   -0.674789   -0.177616
      4          6           0        1.212374    0.674789    0.177616
      5          6           0       -1.178204    0.710319   -0.184847
      6          6           0        1.178204   -0.710319    0.184847
      7          1           0        2.099839   -1.265310    0.329376
      8          1           0       -2.099839    1.265310   -0.329376
      9          1           0        2.145748    1.206871    0.313370
     10          1           0       -2.145748   -1.206871   -0.313370
     11          1           0        0.428946   -9.508534   -1.263083
     12          6           0       -0.458095   -9.098334   -0.794080
     13          6           0       -1.399286   -9.947194   -0.214459
     14          1           0       -1.238630  -11.019339   -0.220158
     15          6           0       -2.554262   -9.415642    0.361243
     16          1           0       -3.292007  -10.074281    0.805083
     17          6           0       -2.764974   -8.041064    0.361732
     18          1           0       -3.664090   -7.612332    0.787058
     19          6           0       -1.813248   -7.180729   -0.196961
     20          6           0       -2.115411   -5.709416   -0.171020
     21          6           0       -0.661659   -7.719780   -0.783904
     22          1           0        0.061427   -7.075514   -1.272030
     23          8           0       -3.246324   -5.271667   -0.178748
     24          7           0       -0.986202   -4.900595   -0.118641
     25          1           0       -0.080681   -5.327235    0.057147
     26          7           0       -1.093925   -3.551517   -0.136047
     27          6           0       -0.021832   -2.868732    0.023469
     28          1           0        0.950810   -3.355667    0.177533
     29          1           0       -0.428946    9.508534    1.263083
     30          6           0        0.458095    9.098334    0.794080
     31          6           0        1.399286    9.947194    0.214459
     32          1           0        1.238630   11.019339    0.220158
     33          6           0        2.554262    9.415642   -0.361243
     34          1           0        3.292007   10.074281   -0.805083
     35          6           0        2.764974    8.041064   -0.361732
     36          1           0        3.664090    7.612332   -0.787058
     37          6           0        1.813248    7.180729    0.196961
     38          6           0        2.115411    5.709416    0.171020
     39          6           0        0.661659    7.719780    0.783904
     40          1           0       -0.061427    7.075514    1.272030
     41          8           0        3.246324    5.271667    0.178748
     42          7           0        0.986202    4.900595    0.118641
     43          1           0        0.080681    5.327235   -0.057147
     44          7           0        1.093925    3.551517    0.136047
     45          6           0        0.021832    2.868732   -0.023469
     46          1           0       -0.950810    3.355667   -0.177533
 ---------------------------------------------------------------------

 SCF Done:  E(RB3LYP) =  -1218.95918894     a.u. after    8 cycles
 SCF Done:  E(RB3LYP) =  -1218.95923578     A.U. after   11 cycles

 Alpha  occ. eigenvalues --  -19.10145 -19.10145 -14.39008 -14.39008 -14.36584
 Alpha  occ. eigenvalues --  -14.36584 -10.28898 -10.28898 -10.22900 -10.22900
 Alpha  occ. eigenvalues --  -10.20351 -10.20351 -10.20178 -10.20176 -10.20011
 Alpha  occ. eigenvalues --  -10.20011 -10.19526 -10.19526 -10.19468 -10.19468
 Alpha  occ. eigenvalues --  -10.19234 -10.19234 -10.19164 -10.19164 -10.19153
 Alpha  occ. eigenvalues --  -10.19152 -10.18651 -10.18650  -1.06833  -1.06833
 Alpha  occ. eigenvalues --   -1.01803  -1.01798  -0.89203  -0.88419  -0.87919
 Alpha  occ. eigenvalues --   -0.86736  -0.85028  -0.79102  -0.77712  -0.76943
 Alpha  occ. eigenvalues --   -0.76810  -0.76739  -0.76120  -0.70033  -0.66549
 Alpha  occ. eigenvalues --   -0.64791  -0.63331  -0.63093  -0.62337  -0.62265
 Alpha  occ. eigenvalues --   -0.61332  -0.60463  -0.59169  -0.56251  -0.55798
 Alpha  occ. eigenvalues --   -0.54321  -0.53395  -0.50888  -0.50251  -0.49453
 Alpha  occ. eigenvalues --   -0.48010  -0.47659  -0.47451  -0.46197  -0.46169
 Alpha  occ. eigenvalues --   -0.45515  -0.44931  -0.44878  -0.44251  -0.44208
 Alpha  occ. eigenvalues --   -0.43868  -0.43512  -0.43271  -0.42948  -0.40829
 Alpha  occ. eigenvalues --   -0.39931  -0.38754  -0.38201  -0.37793  -0.37688
 Alpha  occ. eigenvalues --   -0.37354  -0.36618  -0.36447  -0.36024  -0.35907
 Alpha  occ. eigenvalues --   -0.31055  -0.30601  -0.30450  -0.28123  -0.28097
 Alpha  occ. eigenvalues --   -0.27674  -0.27662  -0.27194  -0.26595  -0.26584
 Alpha  occ. eigenvalues --   -0.26325  -0.22399
 Alpha virt. eigenvalues --   -0.08853  -0.05927  -0.04797  -0.03341  -0.03308
 Alpha virt. eigenvalues --   -0.02584  -0.01999  -0.01918  -0.01904  -0.00509
 Alpha virt. eigenvalues --   -0.00503   0.00621   0.00831   0.01214   0.01284

 Mulliken charges:
               1
     1  C    0.414929
     2  C    0.414929
     3  C   -0.229661
     4  C   -0.229661
     5  C   -0.758384
     6  C   -0.758384
     7  H    0.176747
     8  H    0.176747
     9  H    0.199962
    10  H    0.199962
    11  H    0.180050
    12  C   -0.209640
    13  C   -0.277975
    14  H    0.160256
    15  C   -0.295746
    16  H    0.174681
    17  C   -0.115939
    18  H    0.208821
    19  C    0.995808
    20  C   -0.512027
    21  C   -0.380648
    22  H    0.154861
    23  O   -0.286460
    24  N   -0.059522
    25  H    0.198286
    26  N    0.242832
    27  C   -0.087409
    28  H    0.106176
    29  H    0.180050
    30  C   -0.209640
    31  C   -0.277975
    32  H    0.160256
    33  C   -0.295746
    34  H    0.174681
    35  C   -0.115939
    36  H    0.208821
    37  C    0.995808
    38  C   -0.512027
    39  C   -0.380648
    40  H    0.154861
    41  O   -0.286460
    42  N   -0.059522
    43  H    0.198286
    44  N    0.242832
    45  C   -0.087409
    46  H    0.106176
 Sum of Mulliken charges =  -0.00000

 Dipole moment (field-independent basis, Debye):
    X=              0.0000    Y=             -0.0000    Z=             -0.0000  Tot=              0.0000
 Quadrupole moment (field-independent basis, Debye-Ang):
   XX=           -181.4376   YY=            -91.1243   ZZ=           -167.7280
   XY=            -33.2867   XZ=             -7.5183   YZ=             -3.9829

  Exact polarizability:     298.924      94.423     682.714     -18.111       6.378     166.700
 Approx polarizability:     535.995      88.606     782.343     -36.839       3.824     270.876

                      1                      2                      3
                      A                      A                      A
 Frequencies --     11.5498                19.3187                19.9063
 Red. masses --      6.3675                 4.9874                 6.4956
 Frc consts  --      0.0005                 0.0011                 0.0015
 IR Inten    --      0.0308                 5.8900                 2.9159

                      4                      5                      6
                      A                      A                      A
 Frequencies --     30.7781                39.1433                47.2876
 Red. masses --      5.8413                 3.7311                 5.9965
 Frc consts  --      0.0033                 0.0034                 0.0079
 IR Inten    --      0.0000                 0.0000                 0.0000

                      7                      8                      9
                      A                      A                      A
 Frequencies --     47.4405                69.8337                91.9239
 Red. masses --      5.5112                 5.9876                 6.9912
 Frc consts  --      0.0073                 0.0172                 0.0348
 IR Inten    --      4.3390                 0.0000                 3.1591

                     10                     11                     12
                      A                      A                      A
 Frequencies --     96.2694               107.7381               143.2916
 Red. masses --      7.1869                 5.9136                 5.7382
 Frc consts  --      0.0392                 0.0404                 0.0694
 IR Inten    --      0.0000                 7.1165                 0.0000

                     13                     14                     15
                      A                      A                      A
 Frequencies --    169.8152               175.0053               206.6981
 Red. masses --      4.8619                 5.3091                 3.3596
 Frc consts  --      0.0826                 0.0958                 0.0846
 IR Inten    --      0.0000                11.9338                27.3772

                     16                     17                     18
                      A                      A                      A
 Frequencies --    210.4028               234.1093               260.6412
 Red. masses --      4.6938                 5.2863                 4.4727
 Frc consts  --      0.1224                 0.1707                 0.1790
 IR Inten    --      0.0000                18.4627                 0.0000

                     19                     20                     21
                      A                      A                      A
 Frequencies --    270.9119               290.4134               314.8617
 Red. masses --      5.6942                 5.4982                 6.5401
 Frc consts  --      0.2462                 0.2732                 0.3820
 IR Inten    --      3.7328                 0.0000                10.4374

                     22                     23                     24
                      A                      A                      A
 Frequencies --    370.3588               391.8486               406.3952
 Red. masses --      7.8992                 7.8250                 4.2280
 Frc consts  --      0.6384                 0.7079                 0.4114
 IR Inten    --      0.0000                 1.9418                 0.0000

                     25                     26                     27
                      A                      A                      A
 Frequencies --    412.9331               414.0068               414.0300
 Red. masses --      3.0021                 2.9617                 2.9652
 Frc consts  --      0.3016                 0.2991                 0.2995
 IR Inten    --      0.4342                 0.3802                 0.0000

                     28                     29                     30
                      A                      A                      A
 Frequencies --    419.6648               427.7789               481.5354
 Red. masses --      4.5925                 5.5317                 5.3843
 Frc consts  --      0.4765                 0.5964                 0.7356
 IR Inten    --     25.8895                 0.0000                 4.9434

                     31                     32                     33
                      A                      A                      A
 Frequencies --    491.1026               515.3929               522.2985
 Red. masses --      5.3640                 3.5491                 1.2389
 Frc consts  --      0.7622                 0.5554                 0.1991
 IR Inten    --      0.0000                 0.0000                78.3517

                     34                     35                     36
                      A                      A                      A
 Frequencies --    526.6401               548.5694               563.3751
 Red. masses --      1.3000                 2.6343                 4.5804
 Frc consts  --      0.2124                 0.4671                 0.8565
 IR Inten    --      0.0000                43.6728                20.5978

                     37                     38                     39
                      A                      A                      A
 Frequencies --    632.2320               632.2806               648.4907
 Red. masses --      6.3244                 6.3083                 7.0970
 Frc consts  --      1.4894                 1.4859                 1.7585
 IR Inten    --      0.0000                 2.7609                 0.0000

                     40                     41                     42
                      A                      A                      A
 Frequencies --    677.3882               692.3189               698.5588
 Red. masses --      5.6360                 6.5189                 6.2355
 Frc consts  --      1.5237                 1.8409                 1.7928
 IR Inten    --      0.0000                80.1672                 0.0000

                     43                     44                     45
                      A                      A                      A
 Frequencies --    703.8615               704.0685               718.7559
 Red. masses --      2.9920                 2.8931                 1.7438
 Frc consts  --      0.8733                 0.8450                 0.5308
 IR Inten    --     17.3019                 0.0000               138.9166

                     46                     47                     48
                      A                      A                      A
 Frequencies --    719.0886               734.0378               803.2241
 Red. masses --      1.8336                 4.1756                 2.8426
 Frc consts  --      0.5586                 1.3256                 1.0805
 IR Inten    --      0.0000                 0.0000                21.5252

                     49                     50                     51
                      A                      A                      A
 Frequencies --    804.2428               830.9761               850.2002
 Red. masses --      2.7882                 4.8141                 1.4815
 Frc consts  --      1.0626                 1.9586                 0.6310
 IR Inten    --      0.0000                29.6825                27.1837

                     52                     53                     54
                      A                      A                      A
 Frequencies --    851.6072               859.0428               859.1426
 Red. masses --      1.2560                 1.2566                 1.2480
 Frc consts  --      0.5367                 0.5464                 0.5427
 IR Inten    --      0.0000                 0.0000                 4.0924

                     55                     56                     57
                      A                      A                      A
 Frequencies --    869.2111               932.4651               933.2825
 Red. masses --      5.8046                 5.1895                 5.0702
 Frc consts  --      2.5839                 2.6585                 2.6020
 IR Inten    --      0.0000                 0.0000                78.8838

                     58                     59                     60
                      A                      A                      A
 Frequencies --    943.1101               943.1538               949.6636
 Red. masses --      1.4755                 1.4745                 1.4641
 Frc consts  --      0.7732                 0.7728                 0.7779
 IR Inten    --      5.0481                 0.0000                 0.0000

                     61                     62                     63
                      A                      A                      A
 Frequencies --    959.4097               988.1683               991.9215
 Red. masses --      1.5918                 1.3469                 1.3722
 Frc consts  --      0.8633                 0.7749                 0.7955
 IR Inten    --     34.3718                 0.0000                 3.7638

                     64                     65                     66
                      A                      A                      A
 Frequencies --    991.9321               994.6092              1010.4229
 Red. masses --      1.3721                 1.3576                 1.3368
 Frc consts  --      0.7954                 0.7913                 0.8041
 IR Inten    --      0.0000                 0.0803                 1.1957

                     67                     68                     69
                      A                      A                      A
 Frequencies --   1010.4243              1015.6484              1015.7008
 Red. masses --      1.3376                 5.6361                 5.6206
 Frc consts  --      0.8046                 3.4255                 3.4164
 IR Inten    --      0.0000                 9.8837                 0.0000

                     70                     71                     72
                      A                      A                      A
 Frequencies --   1032.3430              1048.1739              1048.3061
 Red. masses --      2.7147                 2.5184                 2.5081
 Frc consts  --      1.7046                 1.6302                 1.6239
 IR Inten    --      6.5156                27.8845                 0.0000

                     73                     74                     75
                      A                      A                      A
 Frequencies --   1077.4995              1080.5281              1111.3175
 Red. masses --      3.4835                 3.3483                 1.7277
 Frc consts  --      2.3828                 2.3033                 1.2572
 IR Inten    --      7.4326                 0.0000                84.3761

                     76                     77                     78
                      A                      A                      A
 Frequencies --   1112.2834              1144.7987              1163.8037
 Red. masses --      1.7426                 1.7667                 4.2433
 Frc consts  --      1.2702                 1.3642                 3.3862
 IR Inten    --      0.0000               247.6938                 0.0000

                     79                     80                     81
                      A                      A                      A
 Frequencies --   1166.9706              1193.1518              1193.1532
 Red. masses --      2.4043                 1.1262                 1.1261
 Frc consts  --      1.9291                 0.9446                 0.9445
 IR Inten    --    635.0308                 0.6589                 0.0000

                     82                     83                     84
                      A                      A                      A
 Frequencies --   1206.7884              1211.5454              1212.0985
 Red. masses --      1.2107                 1.1474                 1.1466
 Frc consts  --      1.0389                 0.9923                 0.9925
 IR Inten    --      0.0000                95.4381                 0.0000

                     85                     86                     87
                      A                      A                      A
 Frequencies --   1247.8522              1251.9623              1252.2235
 Red. masses --      2.5682                 3.0791                 2.3109
 Frc consts  --      2.3562                 2.8435                 2.1350
 IR Inten    --    309.7477                 0.0000               881.1447

                     88                     89                     90
                      A                      A                      A
 Frequencies --   1263.7516              1332.3705              1332.3982
 Red. masses --      2.5089                 3.7910                 3.5292
 Frc consts  --      2.3608                 3.9651                 3.6914
 IR Inten    --      0.0000                 0.5151                 0.0000

                     91                     92                     93
                      A                      A                      A
 Frequencies --   1333.0423              1338.5532              1354.9574
 Red. masses --      6.2799                 1.5075                 1.6005
 Frc consts  --      6.5749                 1.5914                 1.7312
 IR Inten    --      9.6340                 0.0000                 2.7953

                     94                     95                     96
                      A                      A                      A
 Frequencies --   1355.0208              1392.1864              1393.3039
 Red. masses --      1.5953                 1.4024                 1.5963
 Frc consts  --      1.7258                 1.6015                 1.8259
 IR Inten    --      0.0000                 0.0000                56.8114

                     97                     98                     99
                      A                      A                      A
 Frequencies --   1448.6909              1475.4047              1475.4089
 Red. masses --      2.6645                 2.1741                 2.1713
 Frc consts  --      3.2947                 2.7884                 2.7848
 IR Inten    --     19.0683                 0.0000                 7.1839

                    100                    101                    102
                      A                      A                      A
 Frequencies --   1520.5609              1521.1788              1534.9082
 Red. masses --      2.0647                 2.1204                 1.9492
 Frc consts  --      2.8127                 2.8909                 2.7057
 IR Inten    --    113.3103                 0.0000               456.6446

                    103                    104                    105
                      A                      A                      A
 Frequencies --   1551.6449              1558.5308              1585.9765
 Red. masses --      1.7927                 2.1869                 6.5070
 Frc consts  --      2.5430                 3.1298                 9.6433
 IR Inten    --      0.0000               667.0646                 0.0000

                    106                    107                    108
                      A                      A                      A
 Frequencies --   1618.4011              1618.4179              1637.4490
 Red. masses --      5.4168                 5.4128                 5.2206
 Frc consts  --      8.3592                 8.3532                 8.2472
 IR Inten    --      0.0000                 9.8107                 0.0000

                    109                    110                    111
                      A                      A                      A
 Frequencies --   1640.6411              1641.4528              1667.2116
 Red. masses --      5.3973                 5.3395                 7.4768
 Frc consts  --      8.5597                 8.4763                12.2446
 IR Inten    --     12.1229                 0.0000                 5.6562

                    112                    113                    114
                      A                      A                      A
 Frequencies --   1673.9301              1756.2877              1758.6446
 Red. masses --      7.2178                10.9697                11.1557
 Frc consts  --     11.9159                19.9359                20.3283
 IR Inten    --      0.0000               686.5115                 0.0000

                    115                    116                    117
                      A                      A                      A
 Frequencies --   3003.8671              3004.5287              3156.7190
 Red. masses --      1.0858                 1.0862                 1.0894
 Frc consts  --      5.7725                 5.7770                 6.3961
 IR Inten    --    144.6907                 0.0000                25.8454

                    118                    119                    120
                      A                      A                      A
 Frequencies --   3158.5097              3159.5906              3159.6040
 Red. masses --      1.0895                 1.0863                 1.0863
 Frc consts  --      6.4036                 6.3894                 6.3895
 IR Inten    --      0.0000                12.9985                 0.0000

                    121                    122                    123
                      A                      A                      A
 Frequencies --   3167.6594              3167.6606              3178.0908
 Red. masses --      1.0883                 1.0883                 1.0920
 Frc consts  --      6.4339                 6.4339                 6.4982
 IR Inten    --      6.7574                 0.0000                35.9126

                    124                    125                    126
                      A                      A                      A
 Frequencies --   3178.0923              3188.5064              3188.5131
 Red. masses --      1.0920                 1.0959                 1.0959
 Frc consts  --      6.4982                 6.5643                 6.5643
 IR Inten    --      0.0000                28.5847                 0.0000

                    127                    128                    129
                      A                      A                      A
 Frequencies --   3196.7301              3197.7406              3197.9231
 Red. masses --      1.0931                 1.0935                 1.0952
 Frc consts  --      6.5812                 6.5882                 6.5992
 IR Inten    --      1.9772                 0.0000                18.6736

                    130                    131                    132
                      A                      A                      A
 Frequencies --   3197.9353              3496.7644              3496.7715
 Red. masses --      1.0952                 1.0762                 1.0762
 Frc consts  --      6.5992                 7.7529                 7.7529
 IR Inten    --      0.0000                 9.9334                 0.0000

 - Thermochemistry -
 -------------------
 Temperature   298.150 Kelvin.  Pressure   1.00000 Atm.
 Atom     1 has atomic number  6 and mass  12.00000

 Molecular mass:   370.14298 amu.
 Principal axes and moments of inertia in atomic units:
                           1         2         3
     Eigenvalues --  1611.35662********************
           X            0.21963   0.96726   0.12720
           Y            0.97532  -0.21465  -0.05175
           Z            0.02275  -0.13542   0.99053
 This molecule is an asymmetric top.
 Rotational symmetry number  1.
 Warning -- assumption of classical behavior for rotation
           may cause significant error
 Rotational temperatures (Kelvin)      0.05375     0.00158     0.00154
 Rotational constants (GHZ):           1.12001     0.03287     0.03208
 Zero-point vibrational energy     937646.4 (Joules/Mol)
                                  224.10288 (Kcal/Mol)
 Warning -- explicit consideration of  36 degrees of freedom as
           vibrations may cause significant error
 Vibrational temperatures:     16.62    27.80    28.64    44.28    56.32
          (Kelvin)             68.04    68.26   100.48   132.26   138.51
                              155.01   206.16   244.33   251.79   297.39
                              302.72   336.83   375.00   389.78   417.84
                              453.02   532.86   563.78   584.71   594.12
                              595.66   595.70   603.80   615.48   692.82
                              706.59   741.54   751.47   757.72   789.27
                              810.57   909.64   909.71   933.03   974.61
                              996.09  1005.07  1012.70  1013.00  1034.13
                             1034.61  1056.12  1155.66  1157.13  1195.59
                             1223.25  1225.27  1235.97  1236.11  1250.60
                             1341.61  1342.79  1356.93  1356.99  1366.35
                             1380.38  1421.75  1427.15  1427.17  1431.02
                             1453.77  1453.78  1461.29  1461.37  1485.31
                             1508.09  1508.28  1550.28  1554.64  1598.94
                             1600.33  1647.11  1674.45  1679.01  1716.68
                             1716.68  1736.30  1743.14  1743.94  1795.38
                             1801.29  1801.67  1818.26  1916.98  1917.02
                             1917.95  1925.88  1949.48  1949.57  2003.05
                             2004.65  2084.34  2122.78  2122.78  2187.75
                             2188.64  2208.39  2232.47  2242.38  2281.87
                             2328.52  2328.54  2355.92  2360.52  2361.68
                             2398.75  2408.41  2526.91  2530.30  4321.89
                             4322.85  4541.81  4544.39  4545.95  4545.97
                             4557.56  4557.56  4572.56  4572.57  4587.55
                             4587.56  4599.38  4600.84  4601.10  4601.12
                             5031.06  5031.07

 Zero-point correction=                           0.357131 (Hartree/Particle)
 Thermal correction to Energy=                    0.381166
 Thermal correction to Enthalpy=                  0.382110
 Thermal correction to Gibbs Free Energy=         0.298394
 Sum of electronic and zero-point Energies=          -1218.602105
 Sum of electronic and thermal Energies=             -1218.578070
 Sum of electronic and thermal Enthalpies=           -1218.577126
 Sum of electronic and thermal Free Energies=        -1218.660841

                     E (Thermal)             CV                S
                      KCal/Mol        Cal/Mol-Kelvin    Cal/Mol-Kelvin
 Total                  239.185             91.932            176.194
 Electronic               0.000              0.000              0.000
 Translational            0.889              2.981             43.619
 Rotational               0.889              2.981             36.852
 Vibrational            237.408             85.970             95.723
 Vibration     1          0.593              1.987              7.725
 Vibration     2          0.593              1.986              6.703
 Vibration     3          0.593              1.986              6.644
 Vibration     4          0.594              1.984              5.779
 Vibration     5          0.594              1.981              5.302
 Vibration     6          0.595              1.979              4.928
 Vibration     7          0.595              1.979              4.921
 Vibration     8          0.598              1.969              4.158
 Vibration     9          0.602              1.955              3.619
 Vibration    10          0.603              1.952              3.528
 Vibration    11          0.606              1.943              3.309
 Vibration    12          0.616              1.910              2.759
 Vibration    13          0.625              1.880              2.438
 Vibration    14          0.627              1.873              2.381
 Vibration    15          0.641              1.830              2.073
 Vibration    16          0.643              1.825              2.040
 Vibration    17          0.654              1.789              1.847
 Vibration    18          0.669              1.745              1.657
 Vibration    19          0.675              1.727              1.590
 Vibration    20          0.686              1.692              1.472
 Vibration    21          0.702              1.645              1.337
 Vibration    22          0.742              1.533              1.078
 Vibration    23          0.759              1.488              0.993
 Vibration    24          0.771              1.456              0.939
 Vibration    25          0.777              1.442              0.916
 Vibration    26          0.778              1.440              0.913
 Vibration    27          0.778              1.440              0.912
 Vibration    28          0.782              1.428              0.893
 Vibration    29          0.789              1.410              0.866
 Vibration    30          0.838              1.291              0.706
 Vibration    31          0.847              1.270              0.681
 Vibration    32          0.870              1.216              0.621
 Vibration    33          0.877              1.201              0.605
 Vibration    34          0.882              1.191              0.595
 Vibration    35          0.904              1.143              0.547
 Vibration    36          0.919              1.111              0.517

 Optimization completed.
    -- Stationary point found.
 Normal termination of Gaussian 16 at Sat Oct 17 01:57:08 2020.
