 Gaussian 16, Revision C.01,
 Gaussian 16:  ES64L-G16RevC.01  3-Jul-2019

 ----------------------------------------------------------------------
 #P B3LYP/6-311++G(d,p) EmpiricalDispersion=GD3 freq(noraman) SCF=YQC N
 oSymm
 ----------------------------------------------------------------------

 ----------------------------------------
 Restart from BiPhenyl_Aldehyde_Azine.log
 ----------------------------------------
 Symbolic Z-matrix:
 Charge =  0 Multiplicity = 1

                          Input orientation:
 ---------------------------------------------------------------------
 Center     Atomic      Atomic             Coordinates (Angstroms)
 Number     Number       Type             X           Y           Z
 ---------------------------------------------------------------------
      1          6           0       -0.053317    3.568224   -0.054182
      2          6           0        1.097468    2.867884   -0.455536
      3          6           0        1.113935    1.483212   -0.453715
      4          6           0       -0.012682    0.739699   -0.055063
      5          6           0       -1.159194    1.442548    0.342841
      6          6           0       -1.178193    2.831613    0.344162
      7          6           0        0.012682   -0.739700   -0.055063
      8          6           0       -1.113935   -1.483213   -0.453715
      9          6           0       -1.097468   -2.867886   -0.455536
     10          6           0        0.053317   -3.568225   -0.054181
     11          6           0        1.178193   -2.831614    0.344162
     12          6           0        1.159194   -1.442550    0.342841
     13          1           0       -1.966435   -3.429543   -0.774891
     14          1           0       -2.072554    3.354937    0.666612
     15          1           0        2.072554   -3.354938    0.666613
     16          1           0        1.966435    3.429541   -0.774891
     17          1           0       -2.002339   -0.962007   -0.791400
     18          1           0       -2.032684    0.896602    0.679584
     19          1           0        2.002339    0.962006   -0.791400
     20          1           0        2.032684   -0.896603    0.679584
     21          6           0       -0.113084    5.026526   -0.040267
     22          7           0        0.880681    5.759193   -0.395992
     23          1           0       -1.045258    5.496147    0.287091
     24          7           0        0.604442    7.117039   -0.305759
     25          6           0        1.597265    7.849689   -0.662644
     26          6           0        1.538470    9.310052   -0.650538
     27          1           0        2.529022    7.379645   -0.990762
     28          6           0        2.666820   10.038917   -1.054806
     29          6           0        2.649409   11.431281   -1.057051
     30          1           0        3.560310    9.508641   -1.368232
     31          6           0        1.502246   12.112434   -0.654771
     32          1           0        3.528042   11.982714   -1.371754
     33          6           0        0.372206   11.395168   -0.250022
     34          1           0        1.485585   13.196519   -0.655498
     35          6           0        0.386385   10.007142   -0.246603
     36          1           0       -0.520354   11.925280    0.062943
     37          1           0       -0.483375    9.442402    0.064952
     38          6           0        0.113084   -5.026528   -0.040266
     39          7           0       -0.880681   -5.759195   -0.395992
     40          1           0        1.045258   -5.496149    0.287092
     41          7           0       -0.604442   -7.117041   -0.305758
     42          6           0       -1.597265   -7.849691   -0.662643
     43          6           0       -1.538470   -9.310054   -0.650537
     44          1           0       -2.529022   -7.379646   -0.990761
     45          6           0       -2.666820  -10.038918   -1.054804
     46          6           0       -2.649409  -11.431282   -1.057050
     47          1           0       -3.560310   -9.508643   -1.368230
     48          6           0       -1.502246  -12.112436   -0.654770
     49          1           0       -3.528042  -11.982716   -1.371752
     50          6           0       -0.372206  -11.395170   -0.250021
     51          1           0       -1.485586  -13.196521   -0.655497
     52          6           0       -0.386385  -10.007143   -0.246602
     53          1           0        0.520354  -11.925281    0.062944
     54          1           0        0.483375   -9.442403    0.064952
 ---------------------------------------------------------------------

 SCF Done:  E(RB3LYP) =  -1299.54215847     a.u. after    7 cycles
 SCF Done:  E(RB3LYP) =  -1299.54216184     A.U. after   10 cycles

 Alpha  occ. eigenvalues --  -14.33958 -14.33958 -14.33919 -14.33919 -10.21912
 Alpha  occ. eigenvalues --  -10.21912 -10.21880 -10.21880 -10.20246 -10.20216
 Alpha  occ. eigenvalues --  -10.19690 -10.19690 -10.19563 -10.19563 -10.19183
 Alpha  occ. eigenvalues --  -10.19183 -10.18964 -10.18964 -10.18883 -10.18883
 Alpha  occ. eigenvalues --  -10.18842 -10.18842 -10.18803 -10.18802 -10.18661
 Alpha  occ. eigenvalues --  -10.18661 -10.18660 -10.18660 -10.18560 -10.18560
 Alpha  occ. eigenvalues --  -10.18430 -10.18430  -1.00302  -1.00302  -0.89192
 Alpha  occ. eigenvalues --   -0.88454  -0.87816  -0.86994  -0.85368  -0.84530
 Alpha  occ. eigenvalues --   -0.80004  -0.77380  -0.76778  -0.76624  -0.76048
 Alpha  occ. eigenvalues --   -0.76035  -0.75911  -0.74393  -0.68246  -0.65980
 Alpha  occ. eigenvalues --   -0.64287  -0.63991  -0.62537  -0.62107  -0.61365
 Alpha  occ. eigenvalues --   -0.61269  -0.58831  -0.58109  -0.56255  -0.56184
 Alpha  occ. eigenvalues --   -0.53724  -0.52837  -0.52424  -0.52133  -0.51614
 Alpha  occ. eigenvalues --   -0.49970  -0.48771  -0.47056  -0.47001  -0.46765
 Alpha  occ. eigenvalues --   -0.45586  -0.45570  -0.45172  -0.44859  -0.44552
 Alpha  occ. eigenvalues --   -0.43990  -0.43646  -0.43406  -0.43385  -0.43259
 Alpha  occ. eigenvalues --   -0.42168  -0.42141  -0.42014  -0.39714  -0.39285
 Alpha  occ. eigenvalues --   -0.39006  -0.38052  -0.37287  -0.37073  -0.36818
 Alpha  occ. eigenvalues --   -0.36470  -0.35903  -0.35868  -0.35774  -0.35190
 Alpha  occ. eigenvalues --   -0.34045  -0.33933  -0.32740  -0.31359  -0.28572
 Alpha  occ. eigenvalues --   -0.27178  -0.27116  -0.26870  -0.26838  -0.26420
 Alpha  occ. eigenvalues --   -0.24639  -0.24631  -0.23831  -0.22167
 Alpha virt. eigenvalues --   -0.09359  -0.07743  -0.04800  -0.03461  -0.02609
 Alpha virt. eigenvalues --   -0.02544  -0.02379  -0.02194  -0.00809  -0.00717
 Alpha virt. eigenvalues --   -0.00580  -0.00054   0.00419   0.00677   0.01014

 Mulliken charges:
               1
     1  C    0.719094
     2  C   -0.282275
     3  C   -0.589610
     4  C    0.865091
     5  C   -0.684206
     6  C   -0.770863
     7  C    0.865091
     8  C   -0.589608
     9  C   -0.282273
    10  C    0.719096
    11  C   -0.770865
    12  C   -0.684207
    13  H    0.182583
    14  H    0.165182
    15  H    0.165182
    16  H    0.182583
    17  H    0.163597
    18  H    0.157908
    19  H    0.163596
    20  H    0.157908
    21  C   -0.182171
    22  N    0.100703
    23  H    0.172398
    24  N    0.053789
    25  C   -0.573511
    26  C    1.060524
    27  H    0.187826
    28  C   -0.670435
    29  C   -0.337968
    30  H    0.148084
    31  C   -0.325137
    32  H    0.171499
    33  C   -0.423556
    34  H    0.156557
    35  C    0.170864
    36  H    0.183362
    37  H    0.180671
    38  C   -0.182172
    39  N    0.100704
    40  H    0.172398
    41  N    0.053788
    42  C   -0.573509
    43  C    1.060521
    44  H    0.187826
    45  C   -0.670436
    46  C   -0.337969
    47  H    0.148084
    48  C   -0.325136
    49  H    0.171500
    50  C   -0.423557
    51  H    0.156557
    52  C    0.170865
    53  H    0.183362
    54  H    0.180672
 Sum of Mulliken charges =  -0.00000

 Dipole moment (field-independent basis, Debye):
    X=             -0.0000    Y=             -0.0000    Z=             -0.0164  Tot=              0.0164
 Quadrupole moment (field-independent basis, Debye-Ang):
   XX=           -167.4740   YY=           -140.0736   ZZ=           -195.3935
   XY=              8.9975   XZ=             -0.0000   YZ=             -0.0000

  Exact polarizability:     343.508     125.282    1054.611      -0.000      -0.000     199.836
 Approx polarizability:     619.164     144.839    1165.937      -0.000      -0.000     329.266

                      1                      2                      3
                      A                      A                      A
 Frequencies --      8.4577                14.9973                19.0197
 Red. masses --      6.4862                 5.9593                 3.6625
 Frc consts  --      0.0003                 0.0008                 0.0008
 IR Inten    --      0.1217                 0.1416                 0.0790

                      4                      5                      6
                      A                      A                      A
 Frequencies --     25.6180                30.5167                36.5939
 Red. masses --      4.5532                 4.9898                 6.1838
 Frc consts  --      0.0018                 0.0027                 0.0049
 IR Inten    --      0.0724                 0.0825                 0.0697

                      7                      8                      9
                      A                      A                      A
 Frequencies --     49.4835                64.7315                73.4161
 Red. masses --      6.3362                 5.5298                 3.7606
 Frc consts  --      0.0091                 0.0137                 0.0119
 IR Inten    --      2.3214                 0.9297                 0.0223

                     10                     11                     12
                      A                      A                      A
 Frequencies --     87.2739                90.4299               100.4856
 Red. masses --      5.0885                 5.9042                 4.7325
 Frc consts  --      0.0228                 0.0284                 0.0282
 IR Inten    --      0.7896                 0.0351                 0.6492

                     13                     14                     15
                      A                      A                      A
 Frequencies --    122.2996               146.5066               153.5303
 Red. masses --      5.7849                 5.3327                 5.2166
 Frc consts  --      0.0510                 0.0674                 0.0724
 IR Inten    --      0.5852                12.6196                 0.6874

                     16                     17                     18
                      A                      A                      A
 Frequencies --    172.1751               186.5406               205.5502
 Red. masses --      5.5338                 3.3621                 3.4915
 Frc consts  --      0.0967                 0.0689                 0.0869
 IR Inten    --      0.5380                 0.6014                 1.4476

                     19                     20                     21
                      A                      A                      A
 Frequencies --    241.1242               260.1942               283.0690
 Red. masses --      4.9326                 4.6296                 5.2721
 Frc consts  --      0.1690                 0.1847                 0.2489
 IR Inten    --      1.6261                 1.4289                 6.0828

                     22                     23                     24
                      A                      A                      A
 Frequencies --    306.1709               318.0721               331.0135
 Red. masses --      3.8141                 4.6215                 5.4106
 Frc consts  --      0.2107                 0.2755                 0.3493
 IR Inten    --      7.6668                 0.5046                 2.8414

                     25                     26                     27
                      A                      A                      A
 Frequencies --    344.2406               353.0711               409.9875
 Red. masses --      6.0971                 5.5553                 3.1872
 Frc consts  --      0.4257                 0.4080                 0.3156
 IR Inten    --      0.4471                 0.1810                 1.8526

                     28                     29                     30
                      A                      A                      A
 Frequencies --    411.6169               411.6178               419.6343
 Red. masses --      2.8912                 2.8909                 3.1159
 Frc consts  --      0.2886                 0.2886                 0.3233
 IR Inten    --      0.0750                 0.0209                 0.2642

                     31                     32                     33
                      A                      A                      A
 Frequencies --    436.6199               441.3893               462.4475
 Red. masses --      4.2818                 4.5748                 7.2199
 Frc consts  --      0.4809                 0.5251                 0.9097
 IR Inten    --      1.3132                 4.4872                11.3731

                     34                     35                     36
                      A                      A                      A
 Frequencies --    511.0806               523.3561               525.1484
 Red. masses --      3.5713                 3.1715                 4.3993
 Frc consts  --      0.5496                 0.5118                 0.7148
 IR Inten    --     37.5629                 4.6433                14.1938

                     37                     38                     39
                      A                      A                      A
 Frequencies --    533.8366               541.0869               553.0855
 Red. masses --      6.0436                 4.7976                 3.5748
 Frc consts  --      1.0148                 0.8276                 0.6443
 IR Inten    --      0.0095                 1.0534                 7.9146

                     40                     41                     42
                      A                      A                      A
 Frequencies --    576.3182               631.0996               632.4565
 Red. masses --      2.3891                 6.4668                 6.4944
 Frc consts  --      0.4675                 1.5175                 1.5306
 IR Inten    --      4.6134                 0.5496                 0.0056

                     43                     44                     45
                      A                      A                      A
 Frequencies --    643.3782               644.8350               657.9257
 Red. masses --      6.9926                 6.3864                 6.8526
 Frc consts  --      1.7054                 1.5646                 1.7477
 IR Inten    --      0.1080                 8.5662                 0.1117

                     46                     47                     48
                      A                      A                      A
 Frequencies --    673.2219               693.7097               702.2835
 Red. masses --      6.3434                 6.9976                 1.7729
 Frc consts  --      1.6939                 1.9841                 0.5152
 IR Inten    --      0.3229                28.9933                 8.9902

                     49                     50                     51
                      A                      A                      A
 Frequencies --    702.3104               739.4013               756.7695
 Red. masses --      1.7740                 3.9655                 5.7467
 Frc consts  --      0.5155                 1.2773                 1.9391
 IR Inten    --     73.9186                 1.1318                 0.1071

                     52                     53                     54
                      A                      A                      A
 Frequencies --    760.8822               774.4181               774.8402
 Red. masses --      3.3517                 1.7995                 1.8537
 Frc consts  --      1.1433                 0.6358                 0.6557
 IR Inten    --      1.0154                64.2972                 6.8384

                     55                     56                     57
                      A                      A                      A
 Frequencies --    838.4258               848.8343               854.9413
 Red. masses --      1.4215                 1.2732                 1.3046
 Frc consts  --      0.5887                 0.5405                 0.5618
 IR Inten    --     50.2623                 0.6533                 9.9521

                     58                     59                     60
                      A                      A                      A
 Frequencies --    856.6371               856.6392               870.5753
 Red. masses --      1.2507                 1.2508                 3.6220
 Frc consts  --      0.5408                 0.5408                 1.6174
 IR Inten    --      0.0162                 0.1213                45.0330

                     61                     62                     63
                      A                      A                      A
 Frequencies --    875.4587               876.4536               894.0809
 Red. masses --      4.3441                 1.8360                 4.1082
 Frc consts  --      1.9617                 0.8310                 1.9349
 IR Inten    --      0.4083                 7.0486                 6.5957

                     64                     65                     66
                      A                      A                      A
 Frequencies --    898.4323               933.9715               934.0056
 Red. masses --      4.1756                 1.3626                 1.3635
 Frc consts  --      1.9858                 0.7003                 0.7008
 IR Inten    --      0.0275                 0.2089                 0.0186

                     67                     68                     69
                      A                      A                      A
 Frequencies --    968.5396               972.7661               989.9409
 Red. masses --      1.3214                 1.3650                 1.3690
 Frc consts  --      0.7303                 0.7610                 0.7904
 IR Inten    --      3.9206                 0.9741                 1.4955

                     70                     71                     72
                      A                      A                      A
 Frequencies --    989.9511               992.5515               993.2728
 Red. masses --      1.3695                 1.4303                 1.4456
 Frc consts  --      0.7907                 0.8302                 0.8403
 IR Inten    --      0.2053                 2.7188                22.0982

                     73                     74                     75
                      A                      A                      A
 Frequencies --    997.4307               997.9604              1004.5594
 Red. masses --      1.3825                 1.3674                 1.3940
 Frc consts  --      0.8104                 0.8023                 0.8289
 IR Inten    --      1.6413                 5.3562                 1.1041

                     76                     77                     78
                      A                      A                      A
 Frequencies --   1004.5744              1012.9507              1012.9518
 Red. masses --      1.3940                 1.4944                 1.4942
 Frc consts  --      0.8289                 0.9034                 0.9033
 IR Inten    --      8.5862                 0.2393                 1.6756

                     79                     80                     81
                      A                      A                      A
 Frequencies --   1014.2328              1014.2339              1019.5915
 Red. masses --      6.2784                 6.2779                 6.2049
 Frc consts  --      3.8052                 3.8049                 3.8005
 IR Inten    --      0.8954                 0.0013                32.7617

                     82                     83                     84
                      A                      A                      A
 Frequencies --   1035.8635              1047.3437              1047.4166
 Red. masses --      2.7677                 2.3563                 2.2933
 Frc consts  --      1.7498                 1.5228                 1.4823
 IR Inten    --      0.0202                14.4750                 0.0317

                     85                     86                     87
                      A                      A                      A
 Frequencies --   1049.2789              1051.7739              1053.6995
 Red. masses --      2.9763                 5.5549                 3.5572
 Frc consts  --      1.9307                 3.6205                 2.3270
 IR Inten    --      0.0594                 0.0053                 0.4118

                     88                     89                     90
                      A                      A                      A
 Frequencies --   1109.3328              1109.3487              1150.3512
 Red. masses --      1.6163                 1.6167                 1.3494
 Frc consts  --      1.1719                 1.1722                 1.0521
 IR Inten    --      1.1683                 9.5733                 0.5843

                     91                     92                     93
                      A                      A                      A
 Frequencies --   1150.8478              1191.6153              1191.6160
 Red. masses --      1.4903                 1.1248                 1.1248
 Frc consts  --      1.1629                 0.9410                 0.9410
 IR Inten    --      6.9435                 1.0987                 0.4992

                     94                     95                     96
                      A                      A                      A
 Frequencies --   1204.7936              1204.8664              1211.1376
 Red. masses --      1.1549                 1.1550                 1.1724
 Frc consts  --      0.9877                 0.9879                 1.0132
 IR Inten    --     37.4055                 0.1250                28.6547

                     97                     98                     99
                      A                      A                      A
 Frequencies --   1213.1568              1240.3877              1242.3822
 Red. masses --      1.2629                 2.1715                 2.1501
 Frc consts  --      1.0951                 1.9685                 1.9554
 IR Inten    --      0.1613                57.5294                 0.0138

                    100                    101                    102
                      A                      A                      A
 Frequencies --   1252.7147              1258.8397              1300.8540
 Red. masses --      2.0668                 1.9234                 3.8823
 Frc consts  --      1.9110                 1.7958                 3.8708
 IR Inten    --      7.2556                 0.0006                11.7236

                    103                    104                    105
                      A                      A                      A
 Frequencies --   1307.6989              1325.5492              1328.0694
 Red. masses --      3.8383                 2.9252                 2.5096
 Frc consts  --      3.8672                 3.0283                 2.6080
 IR Inten    --      0.0305                 0.2634                33.0969

                    106                    107                    108
                      A                      A                      A
 Frequencies --   1332.6136              1340.4100              1341.6084
 Red. masses --      4.3402                 1.8813                 1.7065
 Frc consts  --      4.5412                 1.9916                 1.8097
 IR Inten    --      0.1570                17.6043                 0.5173

                    109                    110                    111
                      A                      A                      A
 Frequencies --   1354.3177              1354.6818              1363.3987
 Red. masses --      2.0012                 1.9245                 1.3679
 Frc consts  --      2.1626                 2.0809                 1.4981
 IR Inten    --      1.1883                 7.3013                 1.8752

                    112                    113                    114
                      A                      A                      A
 Frequencies --   1365.0298              1407.1378              1407.4001
 Red. masses --      1.3910                 1.7369                 1.7605
 Frc consts  --      1.5271                 2.0263                 2.0546
 IR Inten    --     26.9308                 5.2636                 0.0196

                    115                    116                    117
                      A                      A                      A
 Frequencies --   1432.8900              1450.9653              1476.0755
 Red. masses --      2.7006                 2.8753                 2.2383
 Frc consts  --      3.2669                 3.5666                 2.8733
 IR Inten    --     22.3720                 1.0090                23.4884

                    118                    119                    120
                      A                      A                      A
 Frequencies --   1476.1764              1524.4684              1524.6283
 Red. masses --      2.2394                 2.2604                 2.2688
 Frc consts  --      2.8752                 3.0951                 3.1072
 IR Inten    --      1.1152                17.5983                 0.1048

                    121                    122                    123
                      A                      A                      A
 Frequencies --   1531.2736              1554.6697              1568.5668
 Red. masses --      2.3398                 2.7417                 5.9655
 Frc consts  --      3.2325                 3.9044                 8.6477
 IR Inten    --     18.5292                 0.0879                37.8507

                    124                    125                    126
                      A                      A                      A
 Frequencies --   1583.7881              1599.5432              1605.3165
 Red. masses --      6.5964                 5.9008                 6.0864
 Frc consts  --      9.7487                 8.8951                 9.2412
 IR Inten    --      0.0108                 8.9157                 0.3462

                    127                    128                    129
                      A                      A                      A
 Frequencies --   1620.7673              1620.8469              1641.6429
 Red. masses --      5.7211                 5.7588                 5.4064
 Frc consts  --      8.8547                 8.9139                 8.5845
 IR Inten    --      0.2011                27.2070                 0.0082

                    130                    131                    132
                      A                      A                      A
 Frequencies --   1643.1934              1648.3659              1653.3033
 Red. masses --      5.5562                 5.9998                 5.9108
 Frc consts  --      8.8391                 9.6049                 9.5192
 IR Inten    --     26.8612                 0.0011               111.1528

                    133                    134                    135
                      A                      A                      A
 Frequencies --   1682.7724              1684.0804              3062.3158
 Red. masses --      7.6424                 7.6746                 1.0871
 Frc consts  --     12.7506                12.8243                 6.0065
 IR Inten    --    664.8417                 7.8987                84.6420

                    136                    137                    138
                      A                      A                      A
 Frequencies --   3062.3237              3065.5311              3065.5975
 Red. masses --      1.0871                 1.0879                 1.0879
 Frc consts  --      6.0065                 6.0234                 6.0239
 IR Inten    --      9.6871                 4.4894                 0.0981

                    139                    140                    141
                      A                      A                      A
 Frequencies --   3157.1802              3157.1827              3159.3409
 Red. masses --      1.0866                 1.0866                 1.0883
 Frc consts  --      6.3817                 6.3817                 6.4001
 IR Inten    --      6.1401                 3.0579                31.9546

                    142                    143                    144
                      A                      A                      A
 Frequencies --   3159.4876              3164.6787              3164.6832
 Red. masses --      1.0882                 1.0882                 1.0882
 Frc consts  --      6.4001                 6.4210                 6.4210
 IR Inten    --      0.3823                 0.0423                 0.0071

                    145                    146                    147
                      A                      A                      A
 Frequencies --   3172.1182              3173.0181              3175.7623
 Red. masses --      1.0894                 1.0891                 1.0919
 Frc consts  --      6.4585                 6.4604                 6.4883
 IR Inten    --      1.7456                10.9360                11.6255

                    148                    149                    150
                      A                      A                      A
 Frequencies --   3175.7642              3182.6785              3183.1369
 Red. masses --      1.0919                 1.0928                 1.0932
 Frc consts  --      6.4883                 6.5218                 6.5261
 IR Inten    --     25.7197                17.5902                 1.8982

                    151                    152                    153
                      A                      A                      A
 Frequencies --   3187.4989              3187.5140              3198.2757
 Red. masses --      1.0964                 1.0964                 1.0935
 Frc consts  --      6.5633                 6.5634                 6.5905
 IR Inten    --     57.0860                 1.0682                 4.2111

                    154                    155                    156
                      A                      A                      A
 Frequencies --   3198.5506              3198.7884              3198.7981
 Red. masses --      1.0937                 1.0944                 1.0944
 Frc consts  --      6.5928                 6.5975                 6.5976
 IR Inten    --      0.3291                15.1003                 0.5584

 - Thermochemistry -
 -------------------
 Temperature   298.150 Kelvin.  Pressure   1.00000 Atm.
 Atom     1 has atomic number  6 and mass  12.00000

 Molecular mass:   414.18445 amu.
 Principal axes and moments of inertia in atomic units:
                           1         2         3
     Eigenvalues --  1572.05413********************
           X            0.13244   0.99119   0.00000
           Y            0.99119  -0.13244   0.00000
           Z           -0.00000  -0.00000   1.00000
 This molecule is an asymmetric top.
 Rotational symmetry number  1.
 Warning -- assumption of classical behavior for rotation
           may cause significant error
 Rotational temperatures (Kelvin)      0.05510     0.00101     0.00100
 Rotational constants (GHZ):           1.14801     0.02113     0.02088
 Zero-point vibrational energy    1122171.3 (Joules/Mol)
                                  268.20539 (Kcal/Mol)
 Warning -- explicit consideration of  40 degrees of freedom as
           vibrations may cause significant error
 Vibrational temperatures:     12.17    21.58    27.37    36.86    43.91
          (Kelvin)             52.65    71.20    93.13   105.63   125.57
                              130.11   144.58   175.96   210.79   220.90
                              247.72   268.39   295.74   346.92   374.36
                              407.27   440.51   457.63   476.25   495.29
                              507.99   589.88   592.22   592.23   603.76
                              628.20   635.06   665.36   735.33   752.99
                              755.57   768.07   778.50   795.77   829.19
                              908.01   909.96   925.68   927.77   946.61
                              968.62   998.09  1010.43  1010.47  1063.83
                             1088.82  1094.74  1114.21  1114.82  1206.31
                             1221.28  1230.07  1232.51  1232.51  1252.56
                             1259.59  1261.02  1286.38  1292.64  1343.78
                             1343.83  1393.51  1399.59  1424.30  1424.32
                             1428.06  1429.10  1435.08  1435.84  1445.34
                             1445.36  1457.41  1457.41  1459.25  1459.26
                             1466.96  1490.38  1506.89  1507.00  1509.68
                             1513.27  1516.04  1596.08  1596.11  1655.10
                             1655.81  1714.47  1714.47  1733.43  1733.53
                             1742.56  1745.46  1784.64  1787.51  1802.38
                             1811.19  1871.64  1881.49  1907.17  1910.80
                             1917.33  1928.55  1930.28  1948.56  1949.08
                             1961.63  1963.97  2024.56  2024.93  2061.61
                             2087.62  2123.74  2123.89  2193.37  2193.60
                             2203.16  2236.82  2256.82  2278.72  2301.39
                             2309.69  2331.92  2332.04  2361.96  2364.19
                             2371.63  2378.73  2421.13  2423.02  4405.99
                             4406.00  4410.62  4410.71  4542.48  4542.48
                             4545.59  4545.80  4553.27  4553.27  4563.97
                             4565.27  4569.21  4569.22  4579.16  4579.82
                             4586.10  4586.12  4601.61  4602.00  4602.34
                             4602.36

 Zero-point correction=                           0.427412 (Hartree/Particle)
 Thermal correction to Energy=                    0.454199
 Thermal correction to Enthalpy=                  0.455143
 Thermal correction to Gibbs Free Energy=         0.364385
 Sum of electronic and zero-point Energies=          -1299.114749
 Sum of electronic and thermal Energies=             -1299.087963
 Sum of electronic and thermal Enthalpies=           -1299.087018
 Sum of electronic and thermal Free Energies=        -1299.177777

                     E (Thermal)             CV                S
                      KCal/Mol        Cal/Mol-Kelvin    Cal/Mol-Kelvin
 Total                  285.014            103.770            191.018
 Electronic               0.000              0.000              0.000
 Translational            0.889              2.981             43.954
 Rotational               0.889              2.981             37.693
 Vibrational            283.237             97.809            109.371
 Vibration     1          0.593              1.987              8.344
 Vibration     2          0.593              1.986              7.206
 Vibration     3          0.593              1.986              6.734
 Vibration     4          0.593              1.985              6.143
 Vibration     5          0.594              1.984              5.796
 Vibration     6          0.594              1.982              5.435
 Vibration     7          0.595              1.978              4.838
 Vibration     8          0.597              1.971              4.307
 Vibration     9          0.599              1.967              4.060
 Vibration    10          0.601              1.958              3.720
 Vibration    11          0.602              1.956              3.651
 Vibration    12          0.604              1.949              3.445
 Vibration    13          0.610              1.931              3.064
 Vibration    14          0.617              1.906              2.717
 Vibration    15          0.619              1.899              2.628
 Vibration    16          0.626              1.877              2.412
 Vibration    17          0.632              1.858              2.262
 Vibration    18          0.640              1.832              2.083
 Vibration    19          0.658              1.777              1.795
 Vibration    20          0.668              1.745              1.660
 Vibration    21          0.682              1.705              1.515
 Vibration    22          0.697              1.662              1.383
 Vibration    23          0.704              1.639              1.320
 Vibration    24          0.713              1.614              1.255
 Vibration    25          0.723              1.587              1.192
 Vibration    26          0.729              1.569              1.152
 Vibration    27          0.774              1.449              0.927
 Vibration    28          0.776              1.445              0.921
 Vibration    29          0.776              1.445              0.921
 Vibration    30          0.782              1.428              0.893
 Vibration    31          0.797              1.390              0.837
 Vibration    32          0.801              1.380              0.822
 Vibration    33          0.820              1.333              0.759
 Vibration    34          0.866              1.225              0.631
 Vibration    35          0.878              1.198              0.602
 Vibration    36          0.880              1.194              0.598
 Vibration    37          0.889              1.175              0.579
 Vibration    38          0.896              1.159              0.563
 Vibration    39          0.908              1.133              0.538
 Vibration    40          0.933              1.082              0.492

 Normal termination of Gaussian 16 at Fri Oct  9 11:55:36 2020.
