 Gaussian 16, Revision C.01,
 Gaussian 16:  ES64L-G16RevC.01  3-Jul-2019

 --------------------------------------------------------------------
 #P B3LYP/6-311++G(d,p) EmpiricalDispersion=GD3 freq(noraman) SCF=YQC
 --------------------------------------------------------------------

 -------------------------------------------------------------
 Restart from 3_Phenyl_Double_Cyanohydrine_Benzobisoxazole.log
 -------------------------------------------------------------
 Symbolic Z-matrix:
 Charge =  0 Multiplicity = 1

                         Standard orientation:
 ---------------------------------------------------------------------
 Center     Atomic      Atomic             Coordinates (Angstroms)
 Number     Number       Type             X           Y           Z
 ---------------------------------------------------------------------
      1          6           0       -0.835086    1.099648   -0.000096
      2          6           0        0.550645    1.307456   -0.000034
      3          6           0        1.369890    0.173341    0.000016
      4          6           0        0.857006   -1.130636    0.000061
      5          6           0       -0.534786   -1.273016    0.000002
      6          6           0       -1.407624   -0.176869   -0.000051
      7          7           0        0.798654    2.669983   -0.000029
      8          8           0       -1.428670    2.325755   -0.000135
      9          6           0       -0.377241    3.222149   -0.000141
     10          6           0       -2.038280    5.075313    0.000316
     11          6           0       -2.325642    6.436725    0.000292
     12          1           0       -2.838766    4.346485    0.000721
     13          6           0       -1.292107    7.372892   -0.000236
     14          1           0       -3.358050    6.766854    0.000691
     15          6           0        0.036435    6.942980   -0.000745
     16          1           0       -1.519710    8.432815   -0.000250
     17          6           0        0.333131    5.585737   -0.000722
     18          1           0        0.841735    7.668550   -0.001168
     19          1           0        1.359184    5.239729   -0.001112
     20          6           0       -0.705003    4.641817   -0.000188
     21          7           0        1.912997   -2.026683    0.000134
     22          8           0        2.728510    0.074337    0.000050
     23          6           0        2.979122   -1.284372    0.000151
     24          6           0        5.414531   -0.772449    0.000796
     25          6           0        6.737231   -1.204290    0.000865
     26          1           0        5.183609    0.285210    0.001199
     27          6           0        7.031219   -2.567441    0.000338
     28          1           0        7.539333   -0.475261    0.001335
     29          6           0        5.994637   -3.503035   -0.000262
     30          1           0        8.062942   -2.900287    0.000395
     31          6           0        4.670881   -3.081367   -0.000331
     32          1           0        6.220352   -4.563230   -0.000684
     33          1           0        3.858206   -3.796955   -0.000792
     34          6           0        4.372474   -1.710356    0.000207
     35          7           0       -2.711639   -0.643344   -0.000068
     36          8           0       -1.299891   -2.400114   -0.000005
     37          6           0       -2.601831   -1.937791   -0.000030
     38          6           0       -3.376271   -4.302858    0.000628
     39          6           0       -4.411618   -5.232418    0.000646
     40          1           0       -2.344851   -4.631702    0.001131
     41          6           0       -5.739124   -4.805409   -0.000009
     42          1           0       -4.181330   -6.291575    0.001176
     43          6           0       -6.031060   -3.439898   -0.000688
     44          1           0       -6.543261   -5.532462    0.000007
     45          6           0       -5.003990   -2.504346   -0.000706
     46          1           0       -7.062069   -3.105262   -0.001211
     47          1           0       -5.217344   -1.442750   -0.001223
     48          6           0       -3.667477   -2.931456   -0.000038
 ---------------------------------------------------------------------

 SCF Done:  E(RB3LYP) =  -1428.25182569     a.u. after    6 cycles
 SCF Done:  E(RB3LYP) =  -1428.25185502     A.U. after   10 cycles

 The electronic state is 1-A.
 Alpha  occ. eigenvalues --  -19.21249 -19.21249 -19.21249 -14.32818 -14.32818
 Alpha  occ. eigenvalues --  -14.32818 -10.28453 -10.28453 -10.28453 -10.25566
 Alpha  occ. eigenvalues --  -10.25566 -10.25565 -10.22870 -10.22869 -10.22868
 Alpha  occ. eigenvalues --  -10.20727 -10.20727 -10.20727 -10.19239 -10.19239
 Alpha  occ. eigenvalues --  -10.19239 -10.19116 -10.19116 -10.19116 -10.19083
 Alpha  occ. eigenvalues --  -10.19083 -10.19082 -10.18946 -10.18946 -10.18945
 Alpha  occ. eigenvalues --  -10.18904 -10.18904 -10.18904  -1.15079  -1.14721
 Alpha  occ. eigenvalues --   -1.14720  -0.94865  -0.94864  -0.94598  -0.88831
 Alpha  occ. eigenvalues --   -0.87874  -0.87874  -0.86248  -0.80423  -0.80422
 Alpha  occ. eigenvalues --   -0.77981  -0.76508  -0.76508  -0.76455  -0.74905
 Alpha  occ. eigenvalues --   -0.74905  -0.68152  -0.67624  -0.67623  -0.63272
 Alpha  occ. eigenvalues --   -0.63272  -0.63229  -0.61374  -0.61374  -0.61240
 Alpha  occ. eigenvalues --   -0.58471  -0.58471  -0.57440  -0.57138  -0.54382
 Alpha  occ. eigenvalues --   -0.54382  -0.52239  -0.51202  -0.51201  -0.51182
 Alpha  occ. eigenvalues --   -0.48796  -0.48795  -0.48292  -0.48099  -0.48099
 Alpha  occ. eigenvalues --   -0.46416  -0.46346  -0.46346  -0.44456  -0.44456
 Alpha  occ. eigenvalues --   -0.44002  -0.43874  -0.43851  -0.43851  -0.41490
 Alpha  occ. eigenvalues --   -0.40530  -0.40530  -0.39563  -0.39063  -0.39063
 Alpha  occ. eigenvalues --   -0.37268  -0.37268  -0.37051  -0.36173  -0.36129
 Alpha  occ. eigenvalues --   -0.36129  -0.35857  -0.35659  -0.35659  -0.33072
 Alpha  occ. eigenvalues --   -0.31174  -0.31135  -0.31135  -0.29081  -0.29081
 Alpha  occ. eigenvalues --   -0.27183  -0.27180  -0.27179  -0.26115  -0.22690
 Alpha  occ. eigenvalues --   -0.22690
 Alpha virt. eigenvalues --   -0.06899  -0.06898  -0.06586  -0.02720  -0.02720
 Alpha virt. eigenvalues --   -0.02686  -0.01095  -0.00676  -0.00676   0.00312
 Alpha virt. eigenvalues --    0.00312   0.00431   0.00890   0.00890   0.01365

 Mulliken charges:
               1
     1  C   -0.154493
     2  C    0.354746
     3  C   -0.154381
     4  C    0.354758
     5  C   -0.154401
     6  C    0.354725
     7  N    0.048329
     8  O   -0.092352
     9  C   -0.006100
    10  C   -0.478463
    11  C   -0.269785
    12  H    0.185342
    13  C   -0.376876
    14  H    0.183073
    15  C   -0.235191
    16  H    0.156131
    17  C   -0.494324
    18  H    0.180052
    19  H    0.191195
    20  C    0.808689
    21  N    0.048319
    22  O   -0.092330
    23  C   -0.006220
    24  C   -0.478489
    25  C   -0.269813
    26  H    0.185344
    27  C   -0.376862
    28  H    0.183071
    29  C   -0.235192
    30  H    0.156130
    31  C   -0.494383
    32  H    0.180051
    33  H    0.191194
    34  C    0.808782
    35  N    0.048359
    36  O   -0.092348
    37  C   -0.006186
    38  C   -0.478449
    39  C   -0.269800
    40  H    0.185360
    41  C   -0.376899
    42  H    0.183071
    43  C   -0.235237
    44  H    0.156130
    45  C   -0.494406
    46  H    0.180051
    47  H    0.191197
    48  C    0.808877
 Sum of Mulliken charges =   0.00000

 Dipole moment (field-independent basis, Debye):
    X=              0.0004    Y=              0.0002    Z=             -0.0000  Tot=              0.0004
 Quadrupole moment (field-independent basis, Debye-Ang):
   XX=           -154.9897   YY=           -154.9894   ZZ=           -196.0906
   XY=             -0.0004   XZ=              0.0017   YZ=             -0.0015

  Exact polarizability:     534.157      -0.009     534.159       0.014      -0.012     161.533
 Approx polarizability:     766.085      -0.013     766.087       0.020      -0.017     265.270

                      1                      2                      3
                      A                      A                      A
 Frequencies --     24.8402                32.9402                33.3579
 Red. masses --      7.0216                 3.7595                 3.7607
 Frc consts  --      0.0026                 0.0024                 0.0025
 IR Inten    --      0.8985                 0.0000                 0.0001

                      4                      5                      6
                      A                      A                      A
 Frequencies --     34.7676                49.6226                49.6335
 Red. masses --      3.6519                 5.7235                 5.7235
 Frc consts  --      0.0026                 0.0083                 0.0083
 IR Inten    --      0.0034                 0.4599                 0.4608

                      7                      8                      9
                      A                      A                      A
 Frequencies --     63.4294                63.5079               116.7405
 Red. masses --      7.2257                 7.2231                 5.7058
 Frc consts  --      0.0171                 0.0172                 0.0458
 IR Inten    --      0.0000                 0.0000                 0.0000

                     10                     11                     12
                      A                      A                      A
 Frequencies --    137.4927               152.4133               152.4660
 Red. masses --      5.9258                 8.3414                 8.3443
 Frc consts  --      0.0660                 0.1142                 0.1143
 IR Inten    --      0.9415                 0.0000                 0.0000

                     13                     14                     15
                      A                      A                      A
 Frequencies --    204.4311               204.4801               211.6782
 Red. masses --      5.8191                 5.8198                 6.8363
 Frc consts  --      0.1433                 0.1434                 0.1805
 IR Inten    --      0.4538                 0.4544                 0.0000

                     16                     17                     18
                      A                      A                      A
 Frequencies --    243.4955               243.5314               276.8115
 Red. masses --      7.1027                 7.1039                13.6895
 Frc consts  --      0.2481                 0.2482                 0.6180
 IR Inten    --      0.0000                 0.0000                 2.1724

                     19                     20                     21
                      A                      A                      A
 Frequencies --    297.9096               311.8503               311.8565
 Red. masses --      6.8255                 7.8178                 7.8173
 Frc consts  --      0.3569                 0.4479                 0.4479
 IR Inten    --      0.3034                 0.6412                 0.6424

                     22                     23                     24
                      A                      A                      A
 Frequencies --    390.4057               390.4790               406.8924
 Red. masses --      8.0824                 8.0854                 6.7539
 Frc consts  --      0.7258                 0.7264                 0.6588
 IR Inten    --      0.0000                 0.0000                 0.0000

                     25                     26                     27
                      A                      A                      A
 Frequencies --    409.6120               410.0255               410.1625
 Red. masses --      2.9120                 2.9286                 2.9293
 Frc consts  --      0.2879                 0.2901                 0.2904
 IR Inten    --      0.0013                 0.0000                 0.0000

                     28                     29                     30
                      A                      A                      A
 Frequencies --    493.9792               494.0145               495.0092
 Red. masses --      9.9261                 9.9249                 3.7558
 Frc consts  --      1.4271                 1.4271                 0.5422
 IR Inten    --      9.5863                 9.5801                 9.3966

                     31                     32                     33
                      A                      A                      A
 Frequencies --    499.4969               499.5009               533.9593
 Red. masses --      4.0121                 4.0107                10.0997
 Frc consts  --      0.5898                 0.5896                 1.6966
 IR Inten    --      0.0002                 0.0002                 3.3772

                     34                     35                     36
                      A                      A                      A
 Frequencies --    533.9684               576.4663               631.4488
 Red. masses --     10.0998                10.2013                 6.4688
 Frc consts  --      1.6967                 1.9973                 1.5197
 IR Inten    --      3.3800                 0.0000                 0.0003

                     37                     38                     39
                      A                      A                      A
 Frequencies --    631.7955               631.8146               669.3813
 Red. masses --      6.4669                 6.4670                11.5966
 Frc consts  --      1.5209                 1.5210                 3.0614
 IR Inten    --      0.2662                 0.2663                 0.8918

                     40                     41                     42
                      A                      A                      A
 Frequencies --    681.6633               681.6679               698.9277
 Red. masses --     10.3181                10.3162                 2.1007
 Frc consts  --      2.8248                 2.8243                 0.6046
 IR Inten    --      0.0000                 0.0000                88.6130

                     43                     44                     45
                      A                      A                      A
 Frequencies --    699.3514               699.4164               706.5024
 Red. masses --      1.9728                 1.9733                11.9798
 Frc consts  --      0.5685                 0.5687                 3.5231
 IR Inten    --      0.5199                 0.4322                 0.0003

                     46                     47                     48
                      A                      A                      A
 Frequencies --    711.9958               712.0012               718.6096
 Red. masses --      6.7862                 6.7860                 3.5378
 Frc consts  --      2.0269                 2.0269                 1.0764
 IR Inten    --     12.9219                12.9264               128.8067

                     49                     50                     51
                      A                      A                      A
 Frequencies --    720.0208               720.0262               744.0198
 Red. masses --      4.2406                 4.2420                 7.4421
 Frc consts  --      1.2953                 1.2957                 2.4272
 IR Inten    --      0.0003                 0.0001                 0.0000

                     52                     53                     54
                      A                      A                      A
 Frequencies --    784.4927               784.5004               785.3614
 Red. masses --      2.2216                 2.2217                 2.2466
 Frc consts  --      0.8056                 0.8056                 0.8164
 IR Inten    --      0.0010                 0.0012                56.8004

                     55                     56                     57
                      A                      A                      A
 Frequencies --    859.3567               859.5359               859.6158
 Red. masses --      1.2486                 1.2484                 1.2483
 Frc consts  --      0.5433                 0.5434                 0.5435
 IR Inten    --      0.0063                 0.0001                 0.0002

                     58                     59                     60
                      A                      A                      A
 Frequencies --    916.7211               936.1959               936.2534
 Red. masses --     12.5651                12.6350                12.6328
 Frc consts  --      6.2214                 6.5247                 6.5243
 IR Inten    --      0.0001                15.8111                15.7537

                     61                     62                     63
                      A                      A                      A
 Frequencies --    940.4925               944.7235               944.7978
 Red. masses --     12.9896                 1.4016                 1.4013
 Frc consts  --      6.7695                 0.7370                 0.7370
 IR Inten    --      0.0008                 0.1124                 0.0436

                     64                     65                     66
                      A                      A                      A
 Frequencies --    945.0950               992.1614               992.3357
 Red. masses --      1.4023                 1.3594                 1.3605
 Frc consts  --      0.7380                 0.7884                 0.7893
 IR Inten    --      7.5105                 0.0027                 0.0000

                     67                     68                     69
                      A                      A                      A
 Frequencies --    992.4110              1002.7709              1003.0935
 Red. masses --      1.3603                 1.2831                 1.2838
 Frc consts  --      0.7893                 0.7601                 0.7611
 IR Inten    --      0.0001                 0.2140                 0.0005

                     70                     71                     72
                      A                      A                      A
 Frequencies --   1003.1180              1014.3789              1014.3829
 Red. masses --      1.2838                 6.2623                 6.2623
 Frc consts  --      0.7611                 3.7965                 3.7965
 IR Inten    --      0.0003                 0.2171                 0.2175

                     73                     74                     75
                      A                      A                      A
 Frequencies --   1014.8681              1036.8376              1036.8591
 Red. masses --      6.2482                 5.5064                 5.4985
 Frc consts  --      3.7916                 3.4877                 3.4828
 IR Inten    --      0.0000                34.0070                33.9896

                     76                     77                     78
                      A                      A                      A
 Frequencies --   1039.5314              1058.3140              1058.3439
 Red. masses --      4.3782                 2.9704                 2.9702
 Frc consts  --      2.7875                 1.9601                 1.9601
 IR Inten    --      0.0011                35.9488                35.9845

                     79                     80                     81
                      A                      A                      A
 Frequencies --   1067.5052              1087.9028              1087.9438
 Red. masses --      2.5314                 4.2108                 4.2085
 Frc consts  --      1.6996                 2.9363                 2.9349
 IR Inten    --      0.0003               157.6549               157.5768

                     82                     83                     84
                      A                      A                      A
 Frequencies --   1112.2112              1113.5426              1113.5631
 Red. masses --      1.6391                 1.7770                 1.7768
 Frc consts  --      1.1946                 1.2982                 1.2981
 IR Inten    --      0.0015                10.5867                10.6039

                     85                     86                     87
                      A                      A                      A
 Frequencies --   1192.9913              1192.9985              1193.0859
 Red. masses --      1.1395                 1.1396                 1.1266
 Frc consts  --      0.9555                 0.9556                 0.9448
 IR Inten    --      0.6751                 0.6874                 0.0023

                     88                     89                     90
                      A                      A                      A
 Frequencies --   1207.5036              1207.5337              1212.7212
 Red. masses --      3.2156                 3.2484                 1.1474
 Frc consts  --      2.7624                 2.7907                 0.9943
 IR Inten    --    102.0720               102.2268                 0.0106

                     91                     92                     93
                      A                      A                      A
 Frequencies --   1214.4815              1214.5156              1257.4247
 Red. masses --      1.4840                 1.4769                 6.5444
 Frc consts  --      1.2897                 1.2835                 6.0966
 IR Inten    --      4.6635                 4.4337                 0.0000

                     94                     95                     96
                      A                      A                      A
 Frequencies --   1308.3992              1308.4313              1309.8863
 Red. masses --      4.6852                 4.6914                 9.7642
 Frc consts  --      4.7256                 4.7321                 9.8709
 IR Inten    --     21.7444                21.7749                 0.0015

                     97                     98                     99
                      A                      A                      A
 Frequencies --   1324.1121              1340.8025              1340.8140
 Red. masses --      3.8531                 5.0004                 5.0028
 Frc consts  --      3.9802                 5.2965                 5.2991
 IR Inten    --      0.0000                 4.9949                 4.9786

                    100                    101                    102
                      A                      A                      A
 Frequencies --   1358.8831              1360.0311              1360.0862
 Red. masses --      1.7850                 1.5079                 1.5065
 Frc consts  --      1.9420                 1.6433                 1.6419
 IR Inten    --      0.0049                 5.7119                 5.6925

                    103                    104                    105
                      A                      A                      A
 Frequencies --   1372.1840              1428.0915              1428.1363
 Red. masses --      5.1542                11.4242                11.4236
 Frc consts  --      5.7179                13.7274                13.7275
 IR Inten    --      0.0000                15.2116                15.2016

                    106                    107                    108
                      A                      A                      A
 Frequencies --   1459.7840              1478.1730              1478.1891
 Red. masses --      5.1385                 2.2727                 2.2729
 Frc consts  --      6.4516                 2.9258                 2.9261
 IR Inten    --      0.0000                22.5989                22.5929

                    109                    110                    111
                      A                      A                      A
 Frequencies --   1486.5522              1518.9173              1518.9346
 Red. masses --      2.9819                 2.2967                 2.2962
 Frc consts  --      3.8824                 3.1219                 3.1213
 IR Inten    --      0.0000                58.3698                58.3851

                    112                    113                    114
                      A                      A                      A
 Frequencies --   1520.4801              1586.1253              1586.1596
 Red. masses --      2.2243                 8.0260                 8.0266
 Frc consts  --      3.0297                11.8967                11.8980
 IR Inten    --      0.0032                82.1667                82.1337

                    115                    116                    117
                      A                      A                      A
 Frequencies --   1605.0270              1621.2130              1621.2369
 Red. masses --      7.0526                 5.9688                 5.9694
 Frc consts  --     10.7044                 9.2430                 9.2443
 IR Inten    --      0.0001                 3.8350                 3.8238

                    118                    119                    120
                      A                      A                      A
 Frequencies --   1626.5388              1643.7944              1643.8188
 Red. masses --      6.8459                 5.4256                 5.4265
 Frc consts  --     10.6711                 8.6377                 8.6393
 IR Inten    --      0.0001                 0.5402                 0.5433

                    121                    122                    123
                      A                      A                      A
 Frequencies --   1647.0102              1676.9778              1676.9898
 Red. masses --      5.6420                11.5688                11.5685
 Frc consts  --      9.0173                19.1687                19.1685
 IR Inten    --      0.0000                48.7042                48.6896

                    124                    125                    126
                      A                      A                      A
 Frequencies --   3164.4425              3164.4467              3164.4711
 Red. masses --      1.0861                 1.0861                 1.0861
 Frc consts  --      6.4079                 6.4079                 6.4081
 IR Inten    --      0.6114                 0.6165                 0.0077

                    127                    128                    129
                      A                      A                      A
 Frequencies --   3175.6148              3175.6289              3175.6361
 Red. masses --      1.0896                 1.0896                 1.0896
 Frc consts  --      6.4740                 6.4740                 6.4741
 IR Inten    --      3.6103                11.9400                14.1515

                    130                    131                    132
                      A                      A                      A
 Frequencies --   3186.5511              3186.5553              3186.6038
 Red. masses --      1.0940                 1.0940                 1.0940
 Frc consts  --      6.5449                 6.5449                 6.5449
 IR Inten    --     30.6648                30.7239                 0.0887

                    133                    134                    135
                      A                      A                      A
 Frequencies --   3199.3272              3199.3480              3199.3515
 Red. masses --      1.0937                 1.0937                 1.0937
 Frc consts  --      6.5956                 6.5958                 6.5958
 IR Inten    --      3.7474                 3.3428                 6.6803

                    136                    137                    138
                      A                      A                      A
 Frequencies --   3201.4835              3201.5087              3201.5395
 Red. masses --      1.0956                 1.0956                 1.0956
 Frc consts  --      6.6162                 6.6162                 6.6165
 IR Inten    --      7.6294                 8.1664                 0.6454

 - Thermochemistry -
 -------------------
 Temperature   298.150 Kelvin.  Pressure   1.00000 Atm.
 Atom     1 has atomic number  6 and mass  12.00000

 Molecular mass:   429.11134 amu.
 Principal axes and moments of inertia in atomic units:
                           1         2         3
     Eigenvalues --  ******************************
           X            1.00000   0.00239  -0.00003
           Y           -0.00239   1.00000   0.00003
           Z            0.00003  -0.00003   1.00000
 This molecule is an asymmetric top.
 Rotational symmetry number  1.
 Warning -- assumption of classical behavior for rotation
           may cause significant error
 Rotational temperatures (Kelvin)      0.00467     0.00467     0.00234
 Rotational constants (GHZ):           0.09733     0.09733     0.04867
 Zero-point vibrational energy     935902.2 (Joules/Mol)
                                  223.68600 (Kcal/Mol)
 Warning -- explicit consideration of  35 degrees of freedom as
           vibrations may cause significant error
 Vibrational temperatures:     35.74    47.39    47.99    50.02    71.40
          (Kelvin)             71.41    91.26    91.37   167.96   197.82
                              219.29   219.36   294.13   294.20   304.56
                              350.34   350.39   398.27   428.63   448.68
                              448.69   561.71   561.81   585.43   589.34
                              589.94   590.13   710.73   710.78   712.21
                              718.66   718.67   768.25   768.26   829.41
                              908.51   909.01   909.04   963.09   980.76
                              980.77  1005.60  1006.21  1006.30  1016.50
                             1024.40  1024.41  1033.92  1035.95  1035.96
                             1070.48  1128.71  1128.72  1129.96  1236.42
                             1236.68  1236.80  1318.96  1346.98  1347.06
                             1353.16  1359.25  1359.35  1359.78  1427.50
                             1427.75  1427.86  1442.76  1443.23  1443.26
                             1459.46  1459.47  1460.17  1491.78  1491.81
                             1495.65  1522.68  1522.72  1535.90  1565.25
                             1565.31  1600.22  1602.14  1602.17  1716.45
                             1716.46  1716.58  1737.33  1737.37  1744.84
                             1747.37  1747.42  1809.15  1882.49  1882.54
                             1884.63  1905.10  1929.12  1929.13  1955.13
                             1956.78  1956.86  1974.27  2054.71  2054.77
                             2100.30  2126.76  2126.78  2138.82  2185.38
                             2185.41  2187.63  2282.08  2282.13  2309.28
                             2332.56  2332.60  2340.23  2365.05  2365.09
                             2369.68  2412.80  2412.81  4552.93  4552.93
                             4552.97  4569.00  4569.02  4569.03  4584.74
                             4584.74  4584.81  4603.12  4603.15  4603.15
                             4606.22  4606.26  4606.30

 Zero-point correction=                           0.356466 (Hartree/Particle)
 Thermal correction to Energy=                    0.380193
 Thermal correction to Enthalpy=                  0.381137
 Thermal correction to Gibbs Free Energy=         0.300306
 Sum of electronic and zero-point Energies=          -1427.895389
 Sum of electronic and thermal Energies=             -1427.871662
 Sum of electronic and thermal Enthalpies=           -1427.870718
 Sum of electronic and thermal Free Energies=        -1427.951549

                     E (Thermal)             CV                S
                      KCal/Mol        Cal/Mol-Kelvin    Cal/Mol-Kelvin
 Total                  238.575             95.152            170.123
 Electronic               0.000              0.000              0.000
 Translational            0.889              2.981             44.060
 Rotational               0.889              2.981             37.786
 Vibrational            236.797             89.190             88.277
 Vibration     1          0.593              1.985              6.204
 Vibration     2          0.594              1.983              5.644
 Vibration     3          0.594              1.983              5.619
 Vibration     4          0.594              1.983              5.537
 Vibration     5          0.595              1.978              4.832
 Vibration     6          0.595              1.978              4.832
 Vibration     7          0.597              1.972              4.348
 Vibration     8          0.597              1.972              4.345
 Vibration     9          0.608              1.935              3.154
 Vibration    10          0.614              1.916              2.838
 Vibration    11          0.619              1.900              2.642
 Vibration    12          0.619              1.900              2.641
 Vibration    13          0.640              1.834              2.093
 Vibration    14          0.640              1.834              2.092
 Vibration    15          0.643              1.823              2.029
 Vibration    16          0.659              1.774              1.777
 Vibration    17          0.659              1.773              1.777
 Vibration    18          0.678              1.716              1.553
 Vibration    19          0.691              1.678              1.429
 Vibration    20          0.700              1.651              1.352
 Vibration    21          0.700              1.651              1.352
 Vibration    22          0.758              1.491              0.999
 Vibration    23          0.758              1.491              0.998
 Vibration    24          0.772              1.455              0.938
 Vibration    25          0.774              1.449              0.928
 Vibration    26          0.774              1.448              0.927
 Vibration    27          0.774              1.448              0.926
 Vibration    28          0.850              1.263              0.673
 Vibration    29          0.850              1.263              0.673
 Vibration    30          0.851              1.261              0.671
 Vibration    31          0.855              1.251              0.659
 Vibration    32          0.855              1.251              0.659
 Vibration    33          0.889              1.175              0.578
 Vibration    34          0.889              1.175              0.578
 Vibration    35          0.933              1.082              0.492

 Normal termination of Gaussian 16 at Fri Jul 31 00:26:28 2020.
