 Gaussian 16, Revision C.01,
 Gaussian 16:  ES64L-G16RevC.01  3-Jul-2019

 ----------------------------------------------------------------------
 #P B3LYP/6-311++G(d,p) EmpiricalDispersion=GD3 freq(noraman) SCF=YQC N
 oSymm
 ----------------------------------------------------------------------

 -------------------------------------------
 Restart from F_Aldehyde_Benzobisoxazole.log
 -------------------------------------------
 Symbolic Z-matrix:
 Charge =  0 Multiplicity = 1

                          Input orientation:
 ---------------------------------------------------------------------
 Center     Atomic      Atomic             Coordinates (Angstroms)
 Number     Number       Type             X           Y           Z
 ---------------------------------------------------------------------
      1          9           0        1.171902   -2.301478   -0.835126
      2          6           0        0.621738   -1.167747   -0.399027
      3          6           0       -0.762695   -1.082209   -0.382523
      4          9           0       -1.458774   -2.141904   -0.808758
      5          6           0       -1.424536    0.085417    0.016423
      6          6           0       -0.621738    1.167748    0.399027
      7          9           0       -1.171902    2.301479    0.835127
      8          6           0        0.762695    1.082210    0.382523
      9          9           0        1.458774    2.141905    0.808759
     10          6           0        1.424536   -0.085416   -0.016422
     11          1           0       -8.179196   -1.140776    0.521194
     12          6           0       -7.248259   -0.610399    0.359096
     13          6           0       -7.287761    0.752771    0.010029
     14          1           0       -8.250269    1.240813   -0.087976
     15          6           0       -6.125573    1.484026   -0.210658
     16          1           0       -6.148457    2.532599   -0.479057
     17          6           0       -4.911744    0.807830   -0.070166
     18          7           0       -3.597340    1.238808   -0.218455
     19          6           0       -4.900326   -0.548650    0.276307
     20          8           0       -3.591814   -0.947554    0.340681
     21          6           0       -6.043421   -1.297383    0.501001
     22          1           0       -6.000419   -2.345289    0.767261
     23          6           0       -2.881545    0.189240    0.027185
     24          1           0        8.179196    1.140775   -0.521194
     25          6           0        7.248259    0.610398   -0.359096
     26          6           0        7.287761   -0.752772   -0.010029
     27          1           0        8.250269   -1.240814    0.087975
     28          6           0        6.125573   -1.484027    0.210657
     29          1           0        6.148457   -2.532599    0.479057
     30          6           0        4.911744   -0.807830    0.070165
     31          7           0        3.597340   -1.238808    0.218454
     32          6           0        4.900326    0.548650   -0.276308
     33          8           0        3.591814    0.947555   -0.340681
     34          6           0        6.043421    1.297382   -0.501001
     35          1           0        6.000420    2.345289   -0.767261
     36          6           0        2.881545   -0.189239   -0.027185
 ---------------------------------------------------------------------

 SCF Done:  E(RB3LYP) =  -1426.64400609     a.u. after    6 cycles
 SCF Done:  E(RB3LYP) =  -1426.64403627     A.U. after   10 cycles

 Alpha  occ. eigenvalues --  -24.72603 -24.72603 -24.72351 -24.72350 -19.21817
 Alpha  occ. eigenvalues --  -19.21817 -14.33739 -14.33739 -10.30888 -10.30887
 Alpha  occ. eigenvalues --  -10.30832 -10.30831 -10.30182 -10.30182 -10.25357
 Alpha  occ. eigenvalues --  -10.25357 -10.25064 -10.25063 -10.22402 -10.22402
 Alpha  occ. eigenvalues --  -10.20178 -10.20178 -10.19821 -10.19821 -10.19721
 Alpha  occ. eigenvalues --  -10.19721 -10.19362 -10.19362  -1.27713  -1.27640
 Alpha  occ. eigenvalues --   -1.26140  -1.26091  -1.15523  -1.15521  -0.95682
 Alpha  occ. eigenvalues --   -0.95595  -0.92734  -0.88274  -0.87665  -0.84154
 Alpha  occ. eigenvalues --   -0.79702  -0.78797  -0.77494  -0.77374  -0.75778
 Alpha  occ. eigenvalues --   -0.71758  -0.67955  -0.66512  -0.64958  -0.64468
 Alpha  occ. eigenvalues --   -0.63768  -0.62430  -0.62197  -0.60104  -0.59437
 Alpha  occ. eigenvalues --   -0.58992  -0.56264  -0.54663  -0.54488  -0.53798
 Alpha  occ. eigenvalues --   -0.53338  -0.52844  -0.52410  -0.51641  -0.51399
 Alpha  occ. eigenvalues --   -0.51365  -0.49839  -0.49750  -0.48710  -0.48411
 Alpha  occ. eigenvalues --   -0.46749  -0.46667  -0.46294  -0.45939  -0.45524
 Alpha  occ. eigenvalues --   -0.43962  -0.43206  -0.43187  -0.41340  -0.41032
 Alpha  occ. eigenvalues --   -0.39672  -0.39413  -0.39021  -0.38142  -0.37755
 Alpha  occ. eigenvalues --   -0.37662  -0.37587  -0.36249  -0.35204  -0.31622
 Alpha  occ. eigenvalues --   -0.31543  -0.31270  -0.27608  -0.26795  -0.26741
 Alpha  occ. eigenvalues --   -0.26317  -0.24758
 Alpha virt. eigenvalues --   -0.10272  -0.05110  -0.03673  -0.02895  -0.02061
 Alpha virt. eigenvalues --   -0.01959  -0.01589  -0.00814  -0.00711   0.00645
 Alpha virt. eigenvalues --    0.00754   0.00946   0.01346   0.01930   0.01956

 Mulliken charges:
               1
     1  F   -0.153925
     2  C   -0.768846
     3  C   -0.730186
     4  F   -0.163553
     5  C    1.464166
     6  C   -0.768851
     7  F   -0.153925
     8  C   -0.730192
     9  F   -0.163553
    10  C    1.464166
    11  H    0.174374
    12  C   -0.187762
    13  C   -0.355319
    14  H    0.169552
    15  C   -0.430290
    16  H    0.189378
    17  C    0.385878
    18  N    0.076671
    19  C    0.622491
    20  O   -0.035581
    21  C   -0.508880
    22  H    0.186885
    23  C    0.064952
    24  H    0.174374
    25  C   -0.187763
    26  C   -0.355318
    27  H    0.169552
    28  C   -0.430291
    29  H    0.189378
    30  C    0.385879
    31  N    0.076671
    32  C    0.622492
    33  O   -0.035581
    34  C   -0.508880
    35  H    0.186885
    36  C    0.064952
 Sum of Mulliken charges =  -0.00000

 Dipole moment (field-independent basis, Debye):
    X=              0.0000    Y=             -0.0000    Z=             -0.0000  Tot=              0.0000
 Quadrupole moment (field-independent basis, Debye-Ang):
   XX=           -110.2567   YY=           -160.6683   ZZ=           -158.9248
   XY=              6.1024   XZ=             -3.4081   YZ=             -5.0254

  Exact polarizability:     544.972      -9.091     230.993      -8.143      -6.412     131.234
 Approx polarizability:     677.472     -19.377     440.250      -5.858     -15.228     215.588

                      1                      2                      3
                      A                      A                      A
 Frequencies --     19.6892                26.6515                30.7127
 Red. masses --      7.2876                 5.1928                 6.7730
 Frc consts  --      0.0017                 0.0022                 0.0038
 IR Inten    --      0.6714                 0.4893                 0.0000

                      4                      5                      6
                      A                      A                      A
 Frequencies --     41.4657                57.0460                86.7019
 Red. masses --      6.7546                 8.6081                 9.2066
 Frc consts  --      0.0068                 0.0165                 0.0408
 IR Inten    --      0.8282                 0.0000                 0.0000

                      7                      8                      9
                      A                      A                      A
 Frequencies --    126.0259               127.9600               161.4283
 Red. masses --     11.8506                12.1047                 9.9597
 Frc consts  --      0.1109                 0.1168                 0.1529
 IR Inten    --      0.3536                 0.2754                 0.0000

                     10                     11                     12
                      A                      A                      A
 Frequencies --    176.0647               191.0872               222.5453
 Red. masses --      8.5900                 9.3813                 8.9155
 Frc consts  --      0.1569                 0.2018                 0.2602
 IR Inten    --      0.0000                 3.3988                 0.0000

                     13                     14                     15
                      A                      A                      A
 Frequencies --    254.9196               258.5941               264.3115
 Red. masses --      7.7271                 6.2885                 8.4913
 Frc consts  --      0.2959                 0.2478                 0.3495
 IR Inten    --      3.5974                 0.0000                 0.8654

                     16                     17                     18
                      A                      A                      A
 Frequencies --    271.5485               307.6650               318.5019
 Red. masses --      9.3334                 8.1975                18.2719
 Frc consts  --      0.4055                 0.4572                 1.0921
 IR Inten    --      2.3053                 0.0000                 0.0000

                     19                     20                     21
                      A                      A                      A
 Frequencies --    324.2965               332.3265               402.2740
 Red. masses --     17.8462                 7.4642                 6.2914
 Frc consts  --      1.1058                 0.4857                 0.5998
 IR Inten    --      1.2474                 0.7363                 0.0000

                     22                     23                     24
                      A                      A                      A
 Frequencies --    406.5063               424.4179               435.2726
 Red. masses --     12.5348                12.8442                 3.0761
 Frc consts  --      1.2204                 1.3632                 0.3434
 IR Inten    --      0.0000                 3.2643                 9.7576

                     25                     26                     27
                      A                      A                      A
 Frequencies --    435.7586               452.7043               495.3617
 Red. masses --      4.5678                 7.6933                 7.8508
 Frc consts  --      0.5110                 0.9290                 1.1350
 IR Inten    --      0.0000                 0.0000                 1.3527

                     28                     29                     30
                      A                      A                      A
 Frequencies --    498.0793               508.3409               573.8701
 Red. masses --     14.4539                 8.5901                 8.5908
 Frc consts  --      2.1127                 1.3079                 1.6669
 IR Inten    --      0.0000                 0.0000                 0.0000

                     31                     32                     33
                      A                      A                      A
 Frequencies --    581.8092               582.3698               582.5380
 Red. masses --      4.4157                 3.9004                 7.0398
 Frc consts  --      0.8807                 0.7794                 1.4075
 IR Inten    --      6.2924                 0.0000                 3.6560

                     34                     35                     36
                      A                      A                      A
 Frequencies --    635.2256               635.7778               641.3308
 Red. masses --      7.3101                 7.0565                 9.5912
 Frc consts  --      1.7379                 1.6805                 2.3243
 IR Inten    --      4.6793                 0.0000                 3.0153

                     37                     38                     39
                      A                      A                      A
 Frequencies --    686.3586               686.6123               745.1105
 Red. masses --     12.1984                 9.3087                 3.0765
 Frc consts  --      3.3858                 2.5856                 1.0063
 IR Inten    --      0.7368                 0.0000                22.2507

                     40                     41                     42
                      A                      A                      A
 Frequencies --    746.8995               758.5427               759.8815
 Red. masses --      4.5040                 1.7976                 2.1863
 Frc consts  --      1.4804                 0.6094                 0.7438
 IR Inten    --      0.0000                 0.0000                97.4290

                     43                     44                     45
                      A                      A                      A
 Frequencies --    764.6521               769.4721               772.2752
 Red. masses --      8.2288                 3.4864                 3.3319
 Frc consts  --      2.8347                 1.2162                 1.1708
 IR Inten    --     10.5745                 0.0000                51.1643

                     46                     47                     48
                      A                      A                      A
 Frequencies --    795.2618               803.1444               853.2503
 Red. masses --      6.0413                11.2988                 7.4647
 Frc consts  --      2.2511                 4.2941                 3.2019
 IR Inten    --      0.0000                 0.0000               127.9166

                     49                     50                     51
                      A                      A                      A
 Frequencies --    863.6539               863.8085               904.0495
 Red. masses --      1.4331                 1.4363                 8.0189
 Frc consts  --      0.6298                 0.6314                 3.8615
 IR Inten    --      0.0000                 0.0763                 0.0000

                     52                     53                     54
                      A                      A                      A
 Frequencies --    905.1135               918.4342               950.4321
 Red. masses --      6.9994                 9.2223                 1.3682
 Frc consts  --      3.3784                 4.5834                 0.7282
 IR Inten    --     13.7734                 0.0000                 0.0000

                     55                     56                     57
                      A                      A                      A
 Frequencies --    950.4662               953.4730               983.3112
 Red. masses --      1.3686                13.3478                 1.2718
 Frc consts  --      0.7285                 7.1495                 0.7245
 IR Inten    --      4.1191                63.7218                 0.0000

                     58                     59                     60
                      A                      A                      A
 Frequencies --    983.5898               990.9691              1005.9298
 Red. masses --      1.2729                11.4570                12.5065
 Frc consts  --      0.7255                 6.6289                 7.4563
 IR Inten    --      0.1201                 0.0000               169.4730

                     61                     62                     63
                      A                      A                      A
 Frequencies --   1021.9326              1022.3435              1124.5007
 Red. masses --      2.0582                 2.0616                 2.2371
 Frc consts  --      1.2664                 1.2695                 1.6667
 IR Inten    --     22.5658                 0.0000                22.9066

                     64                     65                     66
                      A                      A                      A
 Frequencies --   1130.2929              1147.3837              1155.5637
 Red. masses --      1.6509                11.4327                 2.8502
 Frc consts  --      1.2426                 8.8678                 2.2424
 IR Inten    --      0.0000                 0.0000                51.5328

                     67                     68                     69
                      A                      A                      A
 Frequencies --   1172.4112              1175.3120              1203.4611
 Red. masses --      1.3573                 1.2596                 3.0099
 Frc consts  --      1.0992                 1.0252                 2.5684
 IR Inten    --      0.0000                 3.5398                 0.0000

                     70                     71                     72
                      A                      A                      A
 Frequencies --   1235.6913              1261.8523              1263.2736
 Red. masses --      5.1075                 3.8994                 3.8347
 Frc consts  --      4.5949                 3.6582                 3.6056
 IR Inten    --     21.1298                 0.0000                78.1729

                     73                     74                     75
                      A                      A                      A
 Frequencies --   1286.1858              1307.8383              1310.2673
 Red. masses --      9.2893                 2.2058                 1.5922
 Frc consts  --      9.0540                 2.2229                 1.6105
 IR Inten    --      0.0000                 1.4633                 0.0000

                     76                     77                     78
                      A                      A                      A
 Frequencies --   1314.2682              1342.3050              1376.5415
 Red. masses --      3.8942                10.8450                 5.7817
 Frc consts  --      3.9631                11.5129                 6.4549
 IR Inten    --     13.0376                43.4379                 0.0000

                     79                     80                     81
                      A                      A                      A
 Frequencies --   1377.2922              1420.9473              1465.4359
 Red. masses --      5.9998                12.4778                 4.8283
 Frc consts  --      6.7057                14.8437                 6.1091
 IR Inten    --     61.0632                 0.0000                95.2916

                     82                     83                     84
                      A                      A                      A
 Frequencies --   1470.9533              1474.7210              1507.7594
 Red. masses --      2.4348                 3.4499                 3.3384
 Frc consts  --      3.1039                 4.4205                 4.4715
 IR Inten    --      0.0000                16.6532                57.4210

                     85                     86                     87
                      A                      A                      A
 Frequencies --   1507.9060              1510.0023              1576.8783
 Red. masses --      2.6708                 6.4827                11.3745
 Frc consts  --      3.5780                 8.7088                16.6640
 IR Inten    --      0.0000               334.4304                 0.0000

                     88                     89                     90
                      A                      A                      A
 Frequencies --   1600.8814              1610.6434              1639.1328
 Red. masses --      9.9009                10.6557                 7.5619
 Frc consts  --     14.9501                16.2866                11.9704
 IR Inten    --     84.6358                 0.0000                 0.0000

                     91                     92                     93
                      A                      A                      A
 Frequencies --   1642.3953              1652.7956              1653.0969
 Red. masses --      7.6798                 7.7558                 7.7037
 Frc consts  --     12.2056                12.4829                12.4035
 IR Inten    --     15.4436                 0.0000                35.6669

                     94                     95                     96
                      A                      A                      A
 Frequencies --   1671.1495              3172.1008              3172.1082
 Red. masses --     11.7376                 1.0871                 1.0871
 Frc consts  --     19.3134                 6.4449                 6.4449
 IR Inten    --      0.0000                 5.2041                 0.0055

                     97                     98                     99
                      A                      A                      A
 Frequencies --   3186.3824              3186.3883              3201.5239
 Red. masses --      1.0910                 1.0910                 1.0948
 Frc consts  --      6.5266                 6.5266                 6.6116
 IR Inten    --     17.4790                 0.0194                13.0211

                    100                    101                    102
                      A                      A                      A
 Frequencies --   3201.5334              3206.2773              3206.3053
 Red. masses --      1.0948                 1.0960                 1.0960
 Frc consts  --      6.6117                 6.6382                 6.6384
 IR Inten    --      0.7141                12.4876                 0.1575

 - Thermochemistry -
 -------------------
 Temperature   298.150 Kelvin.  Pressure   1.00000 Atm.
 Atom     1 has atomic number  9 and mass  18.99840

 Molecular mass:   384.05219 amu.
 Principal axes and moments of inertia in atomic units:
                           1         2         3
     Eigenvalues --  2680.54736********************
           X            0.99962   0.01992   0.01897
           Y           -0.01666   0.98717  -0.15882
           Z           -0.02189   0.15844   0.98713
 This molecule is an asymmetric top.
 Rotational symmetry number  1.
 Warning -- assumption of classical behavior for rotation
           may cause significant error
 Rotational temperatures (Kelvin)      0.03231     0.00340     0.00312
 Rotational constants (GHZ):           0.67327     0.07086     0.06508
 Zero-point vibrational energy     624880.8 (Joules/Mol)
                                  149.35009 (Kcal/Mol)
 Warning -- explicit consideration of  33 degrees of freedom as
           vibrations may cause significant error
 Vibrational temperatures:     28.33    38.35    44.19    59.66    82.08
          (Kelvin)            124.74   181.32   184.11   232.26   253.32
                              274.93   320.19   366.77   372.06   380.29
                              390.70   442.66   458.25   466.59   478.14
                              578.78   584.87   610.64   626.26   626.96
                              651.34   712.72   716.63   731.39   825.67
                              837.09   837.90   838.14   913.95   914.74
                              922.73   987.52   987.88  1072.05  1074.62
                             1091.37  1093.30  1100.16  1107.10  1111.13
                             1144.20  1155.55  1227.64  1242.61  1242.83
                             1300.73  1302.26  1321.42  1367.46  1367.51
                             1371.84  1414.77  1415.17  1425.78  1447.31
                             1470.33  1470.92  1617.91  1626.24  1650.83
                             1662.60  1686.84  1691.01  1731.51  1777.88
                             1815.52  1817.57  1850.53  1881.69  1885.18
                             1890.94  1931.28  1980.54  1981.62  2044.43
                             2108.44  2116.37  2121.79  2169.33  2169.54
                             2172.56  2268.78  2303.31  2317.36  2358.35
                             2363.04  2378.00  2378.44  2404.41  4563.95
                             4563.96  4584.49  4584.50  4606.28  4606.29
                             4613.12  4613.16

 Zero-point correction=                           0.238005 (Hartree/Particle)
 Thermal correction to Energy=                    0.258609
 Thermal correction to Enthalpy=                  0.259553
 Thermal correction to Gibbs Free Energy=         0.186333
 Sum of electronic and zero-point Energies=          -1426.406032
 Sum of electronic and thermal Energies=             -1426.385428
 Sum of electronic and thermal Enthalpies=           -1426.384483
 Sum of electronic and thermal Free Energies=        -1426.457703

                     E (Thermal)             CV                S
                      KCal/Mol        Cal/Mol-Kelvin    Cal/Mol-Kelvin
 Total                  162.279             80.774            154.104
 Electronic               0.000              0.000              0.000
 Translational            0.889              2.981             43.729
 Rotational               0.889              2.981             35.891
 Vibrational            160.502             74.812             74.484
 Vibration     1          0.593              1.986              6.665
 Vibration     2          0.593              1.984              6.064
 Vibration     3          0.594              1.984              5.783
 Vibration     4          0.594              1.981              5.188
 Vibration     5          0.596              1.975              4.557
 Vibration     6          0.601              1.958              3.733
 Vibration     7          0.611              1.927              3.006
 Vibration     8          0.611              1.925              2.976
 Vibration     9          0.622              1.890              2.533
 Vibration    10          0.628              1.872              2.370
 Vibration    11          0.634              1.852              2.217
 Vibration    12          0.648              1.807              1.938
 Vibration    13          0.665              1.754              1.696
 Vibration    14          0.667              1.748              1.671
 Vibration    15          0.671              1.738              1.633
 Vibration    16          0.675              1.726              1.586
 Vibration    17          0.698              1.659              1.375
 Vibration    18          0.705              1.638              1.318
 Vibration    19          0.709              1.627              1.288
 Vibration    20          0.714              1.611              1.249
 Vibration    21          0.768              1.465              0.954
 Vibration    22          0.771              1.456              0.939
 Vibration    23          0.786              1.417              0.877
 Vibration    24          0.796              1.393              0.842
 Vibration    25          0.796              1.392              0.840
 Vibration    26          0.811              1.355              0.788
 Vibration    27          0.851              1.260              0.670
 Vibration    28          0.854              1.254              0.663
 Vibration    29          0.864              1.232              0.638
 Vibration    30          0.930              1.088              0.497
 Vibration    31          0.939              1.071              0.482
 Vibration    32          0.939              1.069              0.481
 Vibration    33          0.939              1.069              0.481

 Optimization completed.
    -- Stationary point found.
 Normal termination of Gaussian 16 at Thu Nov  5 09:30:26 2020.
