 Gaussian 16, Revision C.01,
 Gaussian 16:  ES64L-G16RevC.01  3-Jul-2019

 --------------------------------------------------------------------
 #P B3LYP/6-311++G(d,p) EmpiricalDispersion=GD3 freq(noraman) SCF=YQC
 --------------------------------------------------------------------

 ------------------------------------------------
 Restart from Pyrene_Aldehyde_Benzobisoxazole.log
 ------------------------------------------------
 Symbolic Z-matrix:
 Charge =  0 Multiplicity = 1

                         Standard orientation:
 ---------------------------------------------------------------------
 Center     Atomic      Atomic             Coordinates (Angstroms)
 Number     Number       Type             X           Y           Z
 ---------------------------------------------------------------------
      1          6           0        3.519104    0.102679   -0.000005
      2          6           0        2.857502   -1.130779   -0.000006
      3          6           0        1.460661   -1.192143   -0.000014
      4          6           0        0.710363    0.020584   -0.000016
      5          6           0        1.390128    1.275687   -0.000017
      6          6           0        2.786372    1.296117   -0.000012
      7          1           0        3.433267   -2.047964   -0.000006
      8          1           0        3.318313    2.239752   -0.000014
      9          6           0       -0.710363   -0.020584   -0.000016
     10          6           0       -1.390128   -1.275686   -0.000015
     11          6           0       -2.786372   -1.296117   -0.000009
     12          6           0       -3.519104   -0.102679   -0.000004
     13          6           0       -2.857502    1.130780   -0.000008
     14          6           0       -1.460661    1.192144   -0.000016
     15          1           0       -3.318313   -2.239751   -0.000010
     16          1           0       -3.433267    2.047964   -0.000009
     17          6           0        0.607687    2.482231   -0.000021
     18          6           0       -0.750011    2.442179   -0.000021
     19          1           0        1.129182    3.433263   -0.000024
     20          1           0       -1.325699    3.361566   -0.000024
     21          6           0        0.750011   -2.442179   -0.000017
     22          6           0       -0.607687   -2.482230   -0.000017
     23          1           0        1.325699   -3.361566   -0.000019
     24          1           0       -1.129182   -3.433263   -0.000019
     25          1           0       10.252807   -1.369770    0.000131
     26          6           0        9.335627   -0.792676    0.000081
     27          6           0        9.407298    0.611385   -0.000026
     28          1           0       10.381101    1.087043   -0.000057
     29          6           0        8.260830    1.401706   -0.000091
     30          1           0        8.311211    2.483332   -0.000176
     31          6           0        7.029896    0.743709   -0.000048
     32          7           0        5.725707    1.227400   -0.000096
     33          6           0        6.986778   -0.656105    0.000056
     34          8           0        5.666919   -1.026646    0.000087
     35          6           0        8.111048   -1.462678    0.000125
     36          1           0        8.042859   -2.542842    0.000208
     37          6           0        4.976078    0.168936   -0.000005
     38          1           0      -10.252807    1.369770    0.000130
     39          6           0       -9.335627    0.792675    0.000081
     40          6           0       -9.407298   -0.611385   -0.000024
     41          1           0      -10.381101   -1.087043   -0.000055
     42          6           0       -8.260829   -1.401706   -0.000088
     43          1           0       -8.311211   -2.483332   -0.000172
     44          6           0       -7.029896   -0.743709   -0.000047
     45          7           0       -5.725706   -1.227400   -0.000094
     46          6           0       -6.986778    0.656105    0.000055
     47          8           0       -5.666919    1.026646    0.000086
     48          6           0       -8.111048    1.462678    0.000123
     49          1           0       -8.042859    2.542842    0.000204
     50          6           0       -4.976078   -0.168936   -0.000004
 ---------------------------------------------------------------------

 SCF Done:  E(RB3LYP) =  -1413.23613321     a.u. after    7 cycles
 SCF Done:  E(RB3LYP) =  -1413.23614356     A.U. after   10 cycles

 The electronic state is 1-A.
 Alpha  occ. eigenvalues --  -19.20625 -19.20625 -14.32221 -14.32221 -10.28260
 Alpha  occ. eigenvalues --  -10.28260 -10.24396 -10.24395 -10.21476 -10.21476
 Alpha  occ. eigenvalues --  -10.20991 -10.20990 -10.20324 -10.20322 -10.20273
 Alpha  occ. eigenvalues --  -10.20265 -10.20231 -10.20196 -10.19513 -10.19513
 Alpha  occ. eigenvalues --  -10.19413 -10.19413 -10.19313 -10.19313 -10.19281
 Alpha  occ. eigenvalues --  -10.19281 -10.19206 -10.19206 -10.18972 -10.18972
 Alpha  occ. eigenvalues --  -10.18860 -10.18860 -10.18583 -10.18583  -1.14174
 Alpha  occ. eigenvalues --   -1.14174  -0.94181  -0.94174  -0.91440  -0.88305
 Alpha  occ. eigenvalues --   -0.87139  -0.86437  -0.84942  -0.83223  -0.79022
 Alpha  occ. eigenvalues --   -0.78718  -0.77047  -0.76593  -0.76592  -0.75588
 Alpha  occ. eigenvalues --   -0.73764  -0.73137  -0.68585  -0.65728  -0.65507
 Alpha  occ. eigenvalues --   -0.64182  -0.63776  -0.62732  -0.62162  -0.62123
 Alpha  occ. eigenvalues --   -0.61393  -0.60018  -0.56146  -0.54670  -0.53936
 Alpha  occ. eigenvalues --   -0.53895  -0.52481  -0.52335  -0.52002  -0.51183
 Alpha  occ. eigenvalues --   -0.51070  -0.49395  -0.49171  -0.49162  -0.48675
 Alpha  occ. eigenvalues --   -0.46107  -0.46030  -0.45626  -0.45379  -0.45305
 Alpha  occ. eigenvalues --   -0.44826  -0.43649  -0.43211  -0.42433  -0.42188
 Alpha  occ. eigenvalues --   -0.42150  -0.41655  -0.40850  -0.39595  -0.39298
 Alpha  occ. eigenvalues --   -0.38880  -0.38546  -0.38203  -0.37434  -0.36940
 Alpha  occ. eigenvalues --   -0.36883  -0.36709  -0.36139  -0.35689  -0.35580
 Alpha  occ. eigenvalues --   -0.34461  -0.33864  -0.31866  -0.30446  -0.30415
 Alpha  occ. eigenvalues --   -0.29530  -0.27825  -0.27629  -0.25935  -0.25927
 Alpha  occ. eigenvalues --   -0.24474  -0.22719  -0.21976
 Alpha virt. eigenvalues --   -0.08497  -0.07813  -0.05324  -0.02958  -0.02133
 Alpha virt. eigenvalues --   -0.01555  -0.01131  -0.00922  -0.00748  -0.00655
 Alpha virt. eigenvalues --   -0.00296  -0.00034   0.00390   0.00767   0.00921

 Mulliken charges:
               1
     1  C    0.749539
     2  C   -0.794411
     3  C    0.234061
     4  C   -0.252261
     5  C    0.239358
     6  C   -0.793604
     7  H    0.152605
     8  H    0.176163
     9  C   -0.252262
    10  C    0.239357
    11  C   -0.793604
    12  C    0.749538
    13  C   -0.794411
    14  C    0.234060
    15  H    0.176163
    16  H    0.152605
    17  C   -0.263598
    18  C   -0.241441
    19  H    0.153197
    20  H    0.148709
    21  C   -0.241441
    22  C   -0.263598
    23  H    0.148709
    24  H    0.153198
    25  H    0.170332
    26  C   -0.235294
    27  C   -0.232147
    28  H    0.168060
    29  C   -0.426262
    30  H    0.175410
    31  C    0.456073
    32  N    0.097309
    33  C    0.843881
    34  O   -0.057771
    35  C   -0.444965
    36  H    0.167757
    37  C   -0.190700
    38  H    0.170332
    39  C   -0.235293
    40  C   -0.232147
    41  H    0.168060
    42  C   -0.426263
    43  H    0.175410
    44  C    0.456074
    45  N    0.097309
    46  C    0.843880
    47  O   -0.057771
    48  C   -0.444965
    49  H    0.167757
    50  C   -0.190698
 Sum of Mulliken charges =  -0.00000

 Dipole moment (field-independent basis, Debye):
    X=             -0.0000    Y=             -0.0000    Z=              0.0002  Tot=              0.0002
 Quadrupole moment (field-independent basis, Debye-Ang):
   XX=           -161.4853   YY=           -177.2729   ZZ=           -203.8255
   XY=            -12.8136   XZ=              0.0000   YZ=             -0.0000

  Exact polarizability:     899.691       5.829     356.512      -0.000      -0.000     168.336
 Approx polarizability:    1171.913      23.132     692.622      -0.000      -0.000     281.473

                      1                      2                      3
                      A                      A                      A
 Frequencies --     14.7825                28.5584                35.4199
 Red. masses --      6.7292                 5.1263                 5.0667
 Frc consts  --      0.0009                 0.0025                 0.0037
 IR Inten    --      0.1066                 0.6516                 0.0000

                      4                      5                      6
                      A                      A                      A
 Frequencies --     40.5055                41.4877                78.8244
 Red. masses --      6.2861                 6.7749                 6.0623
 Frc consts  --      0.0061                 0.0069                 0.0222
 IR Inten    --      0.3333                 0.0000                 0.0000

                      7                      8                      9
                      A                      A                      A
 Frequencies --     79.6899               136.0946               156.9669
 Red. masses --      7.2601                 6.9407                 4.2443
 Frc consts  --      0.0272                 0.0757                 0.0616
 IR Inten    --      1.4818                 0.0000                 0.0045

                     10                     11                     12
                      A                      A                      A
 Frequencies --    157.4850               182.4188               214.2186
 Red. masses --      8.6796                 4.7812                 6.9659
 Frc consts  --      0.1268                 0.0937                 0.1883
 IR Inten    --      0.0000                 0.3277                 2.2831

                     13                     14                     15
                      A                      A                      A
 Frequencies --    229.8694               250.7058               258.1800
 Red. masses --      5.1889                 3.7980                 6.3269
 Frc consts  --      0.1615                 0.1406                 0.2485
 IR Inten    --      7.8265                 0.0000                 1.1020

                     16                     17                     18
                      A                      A                      A
 Frequencies --    258.7415               274.0721               280.0432
 Red. masses --      5.5896                 7.6156                 6.7702
 Frc consts  --      0.2205                 0.3370                 0.3128
 IR Inten    --      0.0000                 0.2233                 0.0000

                     19                     20                     21
                      A                      A                      A
 Frequencies --    285.4970               340.0432               391.6154
 Red. masses --      5.7596                 6.3253                 5.2082
 Frc consts  --      0.2766                 0.4309                 0.4706
 IR Inten    --      0.0000                 0.4444                 0.0000

                     22                     23                     24
                      A                      A                      A
 Frequencies --    400.8767               424.7176               432.7005
 Red. masses --      3.5175                 5.6416                 3.0491
 Frc consts  --      0.3330                 0.5996                 0.3364
 IR Inten    --      0.0051                 3.0207                 8.6375

                     25                     26                     27
                      A                      A                      A
 Frequencies --    439.7743               473.7227               487.1853
 Red. masses --      3.3018                 7.6682                 7.2133
 Frc consts  --      0.3762                 1.0139                 1.0087
 IR Inten    --      0.0000                 0.0000                 0.0000

                     28                     29                     30
                      A                      A                      A
 Frequencies --    491.7040               507.6801               513.8080
 Red. masses --      6.3795                 4.1245                 5.0530
 Frc consts  --      0.9087                 0.6263                 0.7860
 IR Inten    --      0.0000                 0.0000                 8.6992

                     31                     32                     33
                      A                      A                      A
 Frequencies --    532.1250               552.8817               571.6239
 Red. masses --      3.0611                 7.3955                 4.6008
 Frc consts  --      0.5107                 1.3319                 0.8857
 IR Inten    --      0.0000                 0.9904                 0.1537

                     34                     35                     36
                      A                      A                      A
 Frequencies --    572.6086               576.9992               580.4887
 Red. masses --      8.0777                 7.5743                 5.7951
 Frc consts  --      1.5605                 1.4857                 1.1505
 IR Inten    --      5.5882                 0.0000                 0.0000

                     37                     38                     39
                      A                      A                      A
 Frequencies --    581.8550               585.4177               596.0593
 Red. masses --      3.9912                 4.0690                 6.9332
 Frc consts  --      0.7961                 0.8216                 1.4513
 IR Inten    --      0.0000                 0.0753                 3.9520

                     40                     41                     42
                      A                      A                      A
 Frequencies --    619.2064               635.2104               638.1585
 Red. masses --      4.1711                 6.9000                 6.9247
 Frc consts  --      0.9423                 1.6403                 1.6615
 IR Inten    --      0.0000                 0.0000                 8.5581

                     43                     44                     45
                      A                      A                      A
 Frequencies --    642.5406               679.7180               708.7465
 Red. masses --      6.4725                 4.3980                 3.4170
 Frc consts  --      1.5744                 1.1972                 1.0113
 IR Inten    --      0.0000                 0.0060                29.8012

                     46                     47                     48
                      A                      A                      A
 Frequencies --    736.2379               738.9963               753.2042
 Red. masses --      2.8389                 2.8247                 2.3861
 Frc consts  --      0.9066                 0.9089                 0.7976
 IR Inten    --      3.5594                 0.0000                77.4388

                     49                     50                     51
                      A                      A                      A
 Frequencies --    753.3163               762.3153               763.6439
 Red. masses --      2.6640                 3.4986                 2.3957
 Frc consts  --      0.8907                 1.1979                 0.8231
 IR Inten    --      0.0000                 0.0000                89.2588

                     52                     53                     54
                      A                      A                      A
 Frequencies --    765.8140               768.7265               799.4189
 Red. masses --      4.0055                 6.8916                 5.7423
 Frc consts  --      1.3841                 2.3995                 2.1621
 IR Inten    --      0.0000                 0.1232                 0.0000

                     55                     56                     57
                      A                      A                      A
 Frequencies --    804.1234               815.1896               818.6911
 Red. masses --      5.7976                 1.3726                 1.5964
 Frc consts  --      2.2087                 0.5374                 0.6304
 IR Inten    --      0.0000                 0.0000                30.4961

                     58                     59                     60
                      A                      A                      A
 Frequencies --    818.8758               857.3459               857.4003
 Red. masses --      5.3114                 1.3945                 1.3957
 Frc consts  --      2.0984                 0.6039                 0.6045
 IR Inten    --     47.2139                 0.0000                 0.0418

                     61                     62                     63
                      A                      A                      A
 Frequencies --    890.1953               890.8586               909.4772
 Red. masses --      8.0636                 6.7226                 1.5018
 Frc consts  --      3.7649                 3.1434                 0.7319
 IR Inten    --      0.0000                41.7308                 0.0001

                     64                     65                     66
                      A                      A                      A
 Frequencies --    909.7986               909.8470               910.3999
 Red. masses --      7.0832                 6.8679                 1.4721
 Frc consts  --      3.4544                 3.3497                 0.7189
 IR Inten    --      0.0001                 6.1075                32.5361

                     67                     68                     69
                      A                      A                      A
 Frequencies --    921.9520               928.9872               942.1519
 Red. masses --      1.4801                 1.4434                 1.3697
 Frc consts  --      0.7412                 0.7340                 0.7164
 IR Inten    --     39.9408                 0.0000                 5.2497

                     70                     71                     72
                      A                      A                      A
 Frequencies --    942.2066               955.3364               955.4730
 Red. masses --      1.3702                 9.8622                10.7976
 Frc consts  --      0.7167                 5.3032                 5.8079
 IR Inten    --      0.0000                81.3854                 0.0000

                     73                     74                     75
                      A                      A                      A
 Frequencies --    974.6521               974.7885               985.8347
 Red. masses --      1.2596                 1.2599                 1.3053
 Frc consts  --      0.7050                 0.7053                 0.7474
 IR Inten    --      0.0130                 0.0000                 0.0168

                     76                     77                     78
                      A                      A                      A
 Frequencies --    989.2500              1011.4904              1013.1718
 Red. masses --      1.3029                 5.9551                 7.5203
 Frc consts  --      0.7512                 3.5897                 4.5483
 IR Inten    --      0.0000                 0.1219                10.6706

                     79                     80                     81
                      A                      A                      A
 Frequencies --   1022.4457              1022.6439              1094.1743
 Red. masses --      2.0172                 2.0421                 3.2105
 Frc consts  --      1.2425                 1.2583                 2.2646
 IR Inten    --      0.0001                33.7146                 0.0000

                     82                     83                     84
                      A                      A                      A
 Frequencies --   1110.4144              1131.0874              1134.3810
 Red. masses --      2.7221                 1.5542                 1.5278
 Frc consts  --      1.9775                 1.1715                 1.1583
 IR Inten    --     49.7290                 0.0000                20.3482

                     85                     86                     87
                      A                      A                      A
 Frequencies --   1140.8673              1172.2848              1174.9065
 Red. masses --      2.7321                 1.5564                 1.2627
 Frc consts  --      2.0952                 1.2602                 1.0270
 IR Inten    --      0.0000                 0.0000                11.2928

                     88                     89                     90
                      A                      A                      A
 Frequencies --   1176.4523              1190.0020              1204.7145
 Red. masses --      1.2590                 1.4349                 2.0318
 Frc consts  --      1.0267                 1.1972                 1.7374
 IR Inten    --      0.0000                 5.5837               117.8586

                     91                     92                     93
                      A                      A                      A
 Frequencies --   1205.2690              1237.6111              1251.3231
 Red. masses --      1.9255                 1.7983                 3.1732
 Frc consts  --      1.6480                 1.6229                 2.9274
 IR Inten    --      0.0000                 8.0512                 0.0000

                     94                     95                     96
                      A                      A                      A
 Frequencies --   1253.6302              1265.5759              1265.7580
 Red. masses --      2.4554                 3.6827                 3.6830
 Frc consts  --      2.2736                 3.4753                 3.4766
 IR Inten    --     79.6695                 0.0022               148.5111

                     97                     98                     99
                      A                      A                      A
 Frequencies --   1273.7906              1308.0704              1308.4725
 Red. masses --      1.4963                 1.6303                 1.6316
 Frc consts  --      1.4304                 1.6435                 1.6458
 IR Inten    --      0.0000                 4.3303                 0.0000

                    100                    101                    102
                      A                      A                      A
 Frequencies --   1328.9537              1332.8055              1354.0422
 Red. masses --      2.9547                 8.1674                 4.1583
 Frc consts  --      3.0746                 8.5481                 4.4919
 IR Inten    --     30.6962                 0.0000                13.0706

                    103                    104                    105
                      A                      A                      A
 Frequencies --   1360.7698              1377.7545              1378.1383
 Red. masses --      2.8795                 4.7586                 5.0405
 Frc consts  --      3.1415                 5.3220                 5.6404
 IR Inten    --      0.0000                 0.0000                15.2319

                    106                    107                    108
                      A                      A                      A
 Frequencies --   1406.7824              1412.4075              1425.4735
 Red. masses --      2.2346                 6.2587                 2.8086
 Frc consts  --      2.6056                 7.3562                 3.3625
 IR Inten    --      0.0000                 0.0000                52.8253

                    109                    110                    111
                      A                      A                      A
 Frequencies --   1440.8939              1470.9895              1473.7618
 Red. masses --      6.2463                 3.8074                 2.7449
 Frc consts  --      7.6408                 4.8539                 3.5126
 IR Inten    --      0.0000                74.9857                40.4341

                    112                    113                    114
                      A                      A                      A
 Frequencies --   1473.8744              1485.3562              1494.3688
 Red. masses --      2.5197                 3.1930                 4.9925
 Frc consts  --      3.2249                 4.1506                 6.5687
 IR Inten    --      0.0000                13.6655                 1.1766

                    115                    116                    117
                      A                      A                      A
 Frequencies --   1502.3941              1505.6835              1505.7111
 Red. masses --      3.7034                 2.7171                 2.6531
 Frc consts  --      4.9251                 3.6293                 3.5440
 IR Inten    --      0.0000                 0.0002                 4.2683

                    118                    119                    120
                      A                      A                      A
 Frequencies --   1581.1109              1589.3791              1613.7184
 Red. masses --      8.1035                 9.5183                 4.9361
 Frc consts  --     11.9356                14.1666                 7.5733
 IR Inten    --      0.0000               303.8065                 0.0000

                    121                    122                    123
                      A                      A                      A
 Frequencies --   1618.0042              1633.4189              1640.0086
 Red. masses --      7.5364                 6.3843                 6.6361
 Frc consts  --     11.6245                10.0359                10.5162
 IR Inten    --      0.0000                 2.2594                30.3635

                    124                    125                    126
                      A                      A                      A
 Frequencies --   1643.2992              1647.6301              1653.9850
 Red. masses --      7.2684                 6.3977                 7.6312
 Frc consts  --     11.5644                10.2328                12.3001
 IR Inten    --      0.0000                 2.0918                 0.0000

                    127                    128                    129
                      A                      A                      A
 Frequencies --   1655.4388              1668.6720              3160.1351
 Red. masses --      7.2091                 6.9861                 1.0866
 Frc consts  --     11.6402                11.4611                 6.3936
 IR Inten    --     26.2773                 0.0000                 0.0008

                    130                    131                    132
                      A                      A                      A
 Frequencies --   3160.2063              3169.6544              3169.6590
 Red. masses --      1.0866                 1.0868                 1.0868
 Frc consts  --      6.3936                 6.4331                 6.4331
 IR Inten    --      1.3191                 5.8058                 0.2916

                    133                    134                    135
                      A                      A                      A
 Frequencies --   3178.6446              3178.8908              3184.0887
 Red. masses --      1.0963                 1.0962                 1.0907
 Frc consts  --      6.5265                 6.5266                 6.5153
 IR Inten    --     30.5670                 0.0022                19.9240

                    136                    137                    138
                      A                      A                      A
 Frequencies --   3184.0940              3191.0462              3191.0805
 Red. masses --      1.0907                 1.0910                 1.0909
 Frc consts  --      6.5153                 6.5454                 6.5448
 IR Inten    --      1.0038                 3.0009                 0.0411

                    139                    140                    141
                      A                      A                      A
 Frequencies --   3192.3362              3192.5143              3198.1781
 Red. masses --      1.0910                 1.0910                 1.0945
 Frc consts  --      6.5507                 6.5517                 6.5958
 IR Inten    --      2.0389                 0.0009                19.2943

                    142                    143                    144
                      A                      A                      A
 Frequencies --   3198.1806              3202.7710              3202.7908
 Red. masses --      1.0945                 1.0962                 1.0962
 Frc consts  --      6.5958                 6.6248                 6.6249
 IR Inten    --      0.0811                21.7977                 0.0069

 - Thermochemistry -
 -------------------
 Temperature   298.150 Kelvin.  Pressure   1.00000 Atm.
 Atom     1 has atomic number  6 and mass  12.00000

 Molecular mass:   436.12118 amu.
 Principal axes and moments of inertia in atomic units:
                           1         2         3
     Eigenvalues --  2695.90542********************
           X            1.00000  -0.00042   0.00000
           Y            0.00042   1.00000   0.00000
           Z           -0.00000  -0.00000   1.00000
 This molecule is an asymmetric top.
 Rotational symmetry number  1.
 Warning -- assumption of classical behavior for rotation
           may cause significant error
 Rotational temperatures (Kelvin)      0.03213     0.00175     0.00166
 Rotational constants (GHZ):           0.66944     0.03638     0.03450
 Zero-point vibrational energy     989211.0 (Joules/Mol)
                                  236.42711 (Kcal/Mol)
 Warning -- explicit consideration of  40 degrees of freedom as
           vibrations may cause significant error
 Vibrational temperatures:     21.27    41.09    50.96    58.28    59.69
          (Kelvin)            113.41   114.66   195.81   225.84   226.59
                              262.46   308.21   330.73   360.71   371.46
                              372.27   394.33   402.92   410.77   489.25
                              563.45   576.77   611.07   622.56   632.74
                              681.58   700.95   707.45   730.44   739.26
                              765.61   795.47   822.44   823.86   830.17
                              835.19   837.16   842.29   857.60   890.90
                              913.93   918.17   924.47   977.96  1019.73
                             1059.28  1063.25  1083.69  1083.85  1096.80
                             1098.71  1101.84  1106.03  1150.19  1156.95
                             1172.88  1177.91  1178.18  1233.53  1233.61
                             1280.79  1281.75  1308.53  1309.00  1309.07
                             1309.86  1326.48  1336.61  1355.55  1355.63
                             1374.52  1374.71  1402.31  1402.50  1418.40
                             1423.31  1455.31  1457.73  1471.07  1471.36
                             1574.27  1597.64  1627.38  1632.12  1641.45
                             1686.66  1690.43  1692.65  1712.15  1733.32
                             1734.11  1780.65  1800.37  1803.69  1820.88
                             1821.14  1832.70  1882.02  1882.60  1912.07
                             1917.61  1948.16  1957.84  1982.28  1982.83
                             2024.05  2032.14  2050.94  2073.13  2116.43
                             2120.41  2120.58  2137.10  2150.06  2161.61
                             2166.34  2166.38  2274.87  2286.76  2321.78
                             2327.95  2350.13  2359.61  2364.34  2370.57
                             2379.72  2381.81  2400.85  4546.73  4546.83
                             4560.43  4560.43  4573.36  4573.71  4581.19
                             4581.20  4591.20  4591.25  4593.06  4593.32
                             4601.46  4601.47  4608.07  4608.10

 Zero-point correction=                           0.376771 (Hartree/Particle)
 Thermal correction to Energy=                    0.399838
 Thermal correction to Enthalpy=                  0.400782
 Thermal correction to Gibbs Free Energy=         0.322555
 Sum of electronic and zero-point Energies=          -1412.859373
 Sum of electronic and thermal Energies=             -1412.836306
 Sum of electronic and thermal Enthalpies=           -1412.835362
 Sum of electronic and thermal Free Energies=        -1412.913589

                     E (Thermal)             CV                S
                      KCal/Mol        Cal/Mol-Kelvin    Cal/Mol-Kelvin
 Total                  250.902             96.745            164.643
 Electronic               0.000              0.000              0.000
 Translational            0.889              2.981             44.108
 Rotational               0.889              2.981             37.190
 Vibrational            249.125             90.784             83.345
 Vibration     1          0.593              1.986              7.235
 Vibration     2          0.593              1.984              5.927
 Vibration     3          0.594              1.982              5.500
 Vibration     4          0.594              1.981              5.234
 Vibration     5          0.594              1.981              5.187
 Vibration     6          0.600              1.963              3.920
 Vibration     7          0.600              1.963              3.898
 Vibration     8          0.614              1.917              2.858
 Vibration     9          0.621              1.895              2.586
 Vibration    10          0.621              1.894              2.580
 Vibration    11          0.630              1.864              2.304
 Vibration    12          0.644              1.819              2.007
 Vibration    13          0.652              1.795              1.880
 Vibration    14          0.663              1.762              1.726
 Vibration    15          0.667              1.749              1.674
 Vibration    16          0.668              1.748              1.670
 Vibration    17          0.676              1.721              1.570
 Vibration    18          0.680              1.711              1.533
 Vibration    19          0.683              1.701              1.501
 Vibration    20          0.720              1.595              1.212
 Vibration    21          0.759              1.488              0.994
 Vibration    22          0.767              1.468              0.959
 Vibration    23          0.787              1.416              0.876
 Vibration    24          0.794              1.399              0.850
 Vibration    25          0.800              1.383              0.827
 Vibration    26          0.831              1.308              0.727
 Vibration    27          0.843              1.278              0.691
 Vibration    28          0.847              1.268              0.679
 Vibration    29          0.863              1.233              0.639
 Vibration    30          0.869              1.219              0.624
 Vibration    31          0.887              1.179              0.582
 Vibration    32          0.908              1.133              0.538
 Vibration    33          0.928              1.093              0.501
 Vibration    34          0.929              1.090              0.499
 Vibration    35          0.933              1.081              0.491
 Vibration    36          0.937              1.073              0.484
 Vibration    37          0.939              1.071              0.482
 Vibration    38          0.942              1.063              0.475
 Vibration    39          0.954              1.040              0.456
 Vibration    40          0.979              0.991              0.418

 Optimization completed.
    -- Stationary point found.
 Normal termination of Gaussian 16 at Sat Aug 15 06:59:25 2020.
