 Gaussian 16, Revision C.01,
 Gaussian 16:  ES64L-G16RevC.01  3-Jul-2019

 --------------------------------------------------------------------
 #P B3LYP/6-311++G(d,p) EmpiricalDispersion=GD3 freq(noraman) SCF=YQC
 --------------------------------------------------------------------

 ---------------------------------------------------
 Restart from 2_Phenyl_BoronicAcid_BoronateEster.log
 ---------------------------------------------------
 Symbolic Z-matrix:
 Charge =  0 Multiplicity = 1

                         Standard orientation:
 ---------------------------------------------------------------------
 Center     Atomic      Atomic             Coordinates (Angstroms)
 Number     Number       Type             X           Y           Z
 ---------------------------------------------------------------------
      1          6           0        0.000000    1.412222    0.000000
      2          6           0       -0.000000   -1.412222    0.000000
      3          6           0        1.208323    0.694793    0.000000
      4          6           0       -1.208323   -0.694793    0.000000
      5          6           0        1.208324   -0.694792    0.000000
      6          6           0       -1.208324    0.694792    0.000000
      7          1           0       -2.147919    1.236490    0.000000
      8          1           0        2.147919   -1.236490    0.000000
      9          1           0       -2.147918   -1.236491    0.000000
     10          1           0        2.147918    1.236491    0.000000
     11          5           0        0.000000    2.951187    0.000000
     12          8           0        1.146094    3.742935    0.000000
     13          8           0       -1.146087    3.742940    0.000000
     14          6           0        0.696930    5.045805    0.000000
     15          6           0       -0.696918    5.045810    0.000000
     16          6           0        1.429667    6.216790    0.000000
     17          6           0       -1.429650    6.216796    0.000000
     18          6           0        0.698977    7.412107    0.000000
     19          6           0       -0.698955    7.412110    0.000000
     20          1           0        2.512021    6.203179    0.000000
     21          1           0       -2.512004    6.203190    0.000000
     22          1           0        1.231047    8.355942    0.000000
     23          1           0       -1.231021    8.355947    0.000000
     24          5           0       -0.000000   -2.951187    0.000000
     25          8           0       -1.146094   -3.742935    0.000000
     26          8           0        1.146087   -3.742940    0.000000
     27          6           0       -0.696930   -5.045805    0.000000
     28          6           0        0.696918   -5.045810    0.000000
     29          6           0       -1.429667   -6.216790    0.000000
     30          6           0        1.429650   -6.216796    0.000000
     31          6           0       -0.698977   -7.412107    0.000000
     32          6           0        0.698955   -7.412110    0.000000
     33          1           0       -2.512021   -6.203179    0.000000
     34          1           0        2.512004   -6.203190    0.000000
     35          1           0       -1.231047   -8.355942    0.000000
     36          1           0        1.231021   -8.355947    0.000000
 ---------------------------------------------------------------------

 SCF Done:  E(RB3LYP) =  -1044.26029079     a.u. after    6 cycles
 SCF Done:  E(RB3LYP) =  -1044.26030181     A.U. after    9 cycles

 The electronic state is 1-AG.
 Alpha  occ. eigenvalues --  -19.17264 -19.17264 -19.17262 -19.17262 -10.24386
 Alpha  occ. eigenvalues --  -10.24386 -10.24330 -10.24330 -10.19170 -10.19169
 Alpha  occ. eigenvalues --  -10.19168 -10.19168 -10.18770 -10.18770 -10.18717
 Alpha  occ. eigenvalues --  -10.18717 -10.18712 -10.18712 -10.18657 -10.18654
 Alpha  occ. eigenvalues --  -10.17787 -10.17786  -6.80132  -6.80132  -1.12011
 Alpha  occ. eigenvalues --   -1.12011  -1.04510  -1.04508  -0.87059  -0.86888
 Alpha  occ. eigenvalues --   -0.86401  -0.76788  -0.76752  -0.76724  -0.75822
 Alpha  occ. eigenvalues --   -0.74872  -0.74115  -0.64042  -0.63539  -0.63421
 Alpha  occ. eigenvalues --   -0.62669  -0.62429  -0.60817  -0.58821  -0.57891
 Alpha  occ. eigenvalues --   -0.53218  -0.53154  -0.52781  -0.52597  -0.51632
 Alpha  occ. eigenvalues --   -0.47933  -0.47898  -0.47645  -0.46235  -0.46230
 Alpha  occ. eigenvalues --   -0.45989  -0.45978  -0.45438  -0.43195  -0.42088
 Alpha  occ. eigenvalues --   -0.42004  -0.39930  -0.38999  -0.38918  -0.38663
 Alpha  occ. eigenvalues --   -0.38663  -0.38556  -0.38211  -0.37954  -0.36433
 Alpha  occ. eigenvalues --   -0.35903  -0.35886  -0.35847  -0.35034  -0.34026
 Alpha  occ. eigenvalues --   -0.28396  -0.26811  -0.26368  -0.26316  -0.24750
 Alpha  occ. eigenvalues --   -0.23743
 Alpha virt. eigenvalues --   -0.07195  -0.02585  -0.02395  -0.02229  -0.00998
 Alpha virt. eigenvalues --   -0.00891  -0.00822  -0.00575  -0.00113   0.00680
 Alpha virt. eigenvalues --    0.01033   0.01083   0.01981   0.02536   0.02677

 Mulliken charges:
               1
     1  C   -0.434368
     2  C   -0.434368
     3  C   -0.138275
     4  C   -0.138275
     5  C   -0.138279
     6  C   -0.138279
     7  H    0.202968
     8  H    0.202968
     9  H    0.202969
    10  H    0.202969
    11  B    0.662574
    12  O   -0.150352
    13  O   -0.150354
    14  C    0.204547
    15  C    0.204552
    16  C   -0.316845
    17  C   -0.316844
    18  C   -0.264565
    19  C   -0.264564
    20  H    0.179011
    21  H    0.179011
    22  H    0.169407
    23  H    0.169407
    24  B    0.662574
    25  O   -0.150352
    26  O   -0.150354
    27  C    0.204547
    28  C    0.204552
    29  C   -0.316845
    30  C   -0.316844
    31  C   -0.264565
    32  C   -0.264564
    33  H    0.179011
    34  H    0.179011
    35  H    0.169407
    36  H    0.169407
 Sum of Mulliken charges =  -0.00000

 Dipole moment (field-independent basis, Debye):
    X=              0.0000    Y=             -0.0000    Z=              0.0000  Tot=              0.0000
 Quadrupole moment (field-independent basis, Debye-Ang):
   XX=           -127.9459   YY=           -106.3774   ZZ=           -143.0549
   XY=             -0.0000   XZ=              0.0000   YZ=              0.0000

  Exact polarizability:     229.059       0.000     440.954       0.000       0.000     123.731
 Approx polarizability:     419.358       0.000     535.387       0.000       0.000     197.529

                      1                      2                      3
                     AU                     AU                     BU
 Frequencies --     20.4140                29.9237                34.8641
 Red. masses --      6.2891                 5.2347                 6.1042
 Frc consts  --      0.0015                 0.0028                 0.0044
 IR Inten    --      0.2745                 0.0000                 0.1551

                      4                      5                      6
                     BG                     BG                     AG
 Frequencies --     58.1988                61.3300                89.9809
 Red. masses --      7.3335                 3.9040                 6.0419
 Frc consts  --      0.0146                 0.0087                 0.0288
 IR Inten    --      0.0000                 0.0000                 0.0000

                      7                      8                      9
                     AU                     AG                     BG
 Frequencies --    117.3251               159.4716               213.7686
 Red. masses --      7.2008                 8.6723                 6.3782
 Frc consts  --      0.0584                 0.1299                 0.1717
 IR Inten    --      1.3672                 0.0000                 0.0000

                     10                     11                     12
                     AU                     BG                     BU
 Frequencies --    243.0820               243.5155               265.7389
 Red. masses --      6.7256                 6.7492                 6.4864
 Frc consts  --      0.2341                 0.2358                 0.2699
 IR Inten    --      0.0000                 0.0000                 1.5893

                     13                     14                     15
                     AU                     AG                     BG
 Frequencies --    304.4678               332.1141               348.4020
 Red. masses --      6.3299                 4.6603                 6.2881
 Frc consts  --      0.3457                 0.3029                 0.4497
 IR Inten    --      1.2660                 0.0000                 0.0000

                     16                     17                     18
                     BU                     AU                     AU
 Frequencies --    357.5658               409.1233               425.6411
 Red. masses --      6.7847                 2.7969                 3.0847
 Frc consts  --      0.5111                 0.2758                 0.3293
 IR Inten    --      0.0065                 0.0000                 7.1776

                     19                     20                     21
                     BG                     AU                     BU
 Frequencies --    433.8275               491.4004               499.2034
 Red. masses --      3.1596                 4.0345                 7.6575
 Frc consts  --      0.3504                 0.5740                 1.1243
 IR Inten    --      0.0000                 6.4917                 0.5738

                     22                     23                     24
                     AG                     AG                     AU
 Frequencies --    520.7142               561.3211               580.7537
 Red. masses --      6.8598                 8.1122                 4.0506
 Frc consts  --      1.0959                 1.5059                 0.8049
 IR Inten    --      0.0000                 0.0000                 0.0000

                     25                     26                     27
                     BG                     BU                     AG
 Frequencies --    581.0898               589.2610               621.8341
 Red. masses --      4.0427                 7.9905                 7.2610
 Frc consts  --      0.8043                 1.6347                 1.6542
 IR Inten    --      0.0000                 0.4584                 0.0000

                     28                     29                     30
                     BU                     AG                     BG
 Frequencies --    622.9445               648.7916               671.7954
 Red. masses --      7.2777                 7.0870                 6.7965
 Frc consts  --      1.6640                 1.7576                 1.8072
 IR Inten    --      0.3703                 0.0000                 0.0000

                     31                     32                     33
                     AU                     AG                     BG
 Frequencies --    692.3302               700.9706               749.5900
 Red. masses --      3.7640                 7.7346                 5.0280
 Frc consts  --      1.0630                 2.2392                 1.6645
 IR Inten    --     56.4339                 0.0000                 0.0000

                     34                     35                     36
                     AU                     BG                     AU
 Frequencies --    750.3780               751.4077               752.1554
 Red. masses --      4.9902                 1.2570                 1.2561
 Frc consts  --      1.6555                 0.4181                 0.4187
 IR Inten    --      0.0000                 0.0000               202.9268

                     37                     38                     39
                     BG                     BU                     AG
 Frequencies --    778.2562               806.2006               823.0751
 Red. masses --      4.5352                 6.8221                 5.8334
 Frc consts  --      1.6184                 2.6125                 2.3284
 IR Inten    --      0.0000                44.4764                 0.0000

                     40                     41                     42
                     BU                     AG                     BG
 Frequencies --    829.2189               837.7996               856.8649
 Red. masses --      9.1259                11.2452                 1.4099
 Frc consts  --      3.6971                 4.6505                 0.6099
 IR Inten    --     43.3823                 0.0000                 0.0000

                     43                     44                     45
                     AU                     AU                     BU
 Frequencies --    856.9145               862.4698               876.7894
 Red. masses --      1.4121                 1.6256                 7.0976
 Frc consts  --      0.6109                 0.7125                 3.2148
 IR Inten    --      0.0000                13.5418                10.0956

                     46                     47                     48
                     AG                     BG                     BG
 Frequencies --    877.3175               879.3719               932.2557
 Red. masses --      7.0934                 1.2475                 1.3747
 Frc consts  --      3.2167                 0.5684                 0.7040
 IR Inten    --      0.0000                 0.0000                 0.0000

                     49                     50                     51
                     AU                     AU                     BG
 Frequencies --    932.2707               966.5754               966.6737
 Red. masses --      1.3750                 1.2465                 1.2465
 Frc consts  --      0.7041                 0.6861                 0.6863
 IR Inten    --      8.8253                 0.0000                 0.0000

                     52                     53                     54
                     BG                     AU                     BU
 Frequencies --   1000.0165              1010.0100              1023.1887
 Red. masses --      1.3308                 1.3936                 2.0152
 Frc consts  --      0.7841                 0.8376                 1.2430
 IR Inten    --      0.0000                 0.0000                 8.8151

                     55                     56                     57
                     AG                     BU                     AG
 Frequencies --   1023.2139              1036.4196              1069.8425
 Red. masses --      2.0087                 3.9553                 7.8729
 Frc consts  --      1.2391                 2.5032                 5.3091
 IR Inten    --      0.0000               110.7593                 0.0000

                     58                     59                     60
                     BU                     AG                     BU
 Frequencies --   1096.4535              1099.1571              1100.9118
 Red. masses --      3.7158                 3.5434                 2.8005
 Frc consts  --      2.6320                 2.5223                 1.9998
 IR Inten    --     10.8006                 0.0000               217.8130

                     61                     62                     63
                     BU                     AG                     BU
 Frequencies --   1128.9749              1148.9559              1152.9905
 Red. masses --      1.5931                 1.7936                 1.7575
 Frc consts  --      1.1964                 1.3951                 1.3766
 IR Inten    --     28.7682                 0.0000                29.6610

                     64                     65                     66
                     AG                     BU                     AG
 Frequencies --   1181.4973              1181.5227              1220.9124
 Red. masses --      1.1525                 1.1538                 1.1510
 Frc consts  --      0.9479                 0.9490                 1.0108
 IR Inten    --      0.0000                23.5891                 0.0000

                     67                     68                     69
                     BU                     AG                     BU
 Frequencies --   1245.7608              1253.7101              1255.6675
 Red. masses --      6.1650                 8.4269                 4.5072
 Frc consts  --      5.6370                 7.8040                 4.1871
 IR Inten    --     95.0835                 0.0000               812.1665

                     70                     71                     72
                     AG                     AG                     BU
 Frequencies --   1259.7878              1300.1464              1300.1493
 Red. masses --      4.4084                 1.5098                 1.5093
 Frc consts  --      4.1222                 1.5037                 1.5032
 IR Inten    --      0.0000                 0.0000                 5.4359

                     73                     74                     75
                     BU                     AG                     BU
 Frequencies --   1320.8675              1338.1536              1348.5765
 Red. masses --     11.6044                 1.3342                 4.4043
 Frc consts  --     11.9286                 1.4076                 4.7193
 IR Inten    --     13.6221                 0.0000              1287.1801

                     76                     77                     78
                     AG                     BU                     AG
 Frequencies --   1362.2840              1395.7884              1410.2819
 Red. masses --      6.4906                 3.8096                 6.2239
 Frc consts  --      7.0970                 4.3729                 7.2934
 IR Inten    --      0.0000               345.9986                 0.0000

                     79                     80                     81
                     BU                     AG                     BU
 Frequencies --   1423.0405              1497.4270              1497.4378
 Red. masses --      2.4182                 2.4652                 2.4653
 Frc consts  --      2.8852                 3.2568                 3.2570
 IR Inten    --     31.0669                 0.0000                 3.4841

                     82                     83                     84
                     BU                     AG                     BU
 Frequencies --   1497.5042              1498.6528              1550.2113
 Red. masses --      2.9479                 3.0542                 2.7163
 Frc consts  --      3.8950                 4.0416                 3.8460
 IR Inten    --    246.8477                 0.0000               139.0499

                     85                     86                     87
                     AG                     BU                     AG
 Frequencies --   1574.2914              1644.6915              1644.9384
 Red. masses --      5.8726                 7.4752                 7.4578
 Frc consts  --      8.5754                11.9135                11.8894
 IR Inten    --      0.0000                 5.3937                 0.0000

                     88                     89                     90
                     AG                     BU                     AG
 Frequencies --   1650.4441              1653.8442              1656.7766
 Red. masses --      6.1622                 7.3083                 6.3600
 Frc consts  --      9.8898                11.7776                10.2858
 IR Inten    --      0.0000                 2.5497                 0.0000

                     91                     92                     93
                     BU                     AG                     BU
 Frequencies --   3164.2907              3164.8420              3172.0348
 Red. masses --      1.0881                 1.0871                 1.0867
 Frc consts  --      6.4192                 6.4155                 6.4424
 IR Inten    --      5.0585                 0.0000                 3.2669

                     94                     95                     96
                     AG                     BU                     AG
 Frequencies --   3172.0478              3180.4690              3182.4562
 Red. masses --      1.0867                 1.0942                 1.0957
 Frc consts  --      6.4424                 6.5212                 6.5381
 IR Inten    --      0.0000                16.6492                 0.0000

                     97                     98                     99
                     BU                     AG                     AG
 Frequencies --   3186.5731              3186.5805              3200.5919
 Red. masses --      1.0913                 1.0913                 1.0941
 Frc consts  --      6.5288                 6.5288                 6.6035
 IR Inten    --     24.1427                 0.0000                 0.0000

                    100                    101                    102
                     BU                     BU                     AG
 Frequencies --   3200.5929              3203.9512              3203.9694
 Red. masses --      1.0941                 1.0964                 1.0964
 Frc consts  --      6.6035                 6.6309                 6.6310
 IR Inten    --     11.5898                 8.2329                 0.0000

 - Thermochemistry -
 -------------------
 Temperature   298.150 Kelvin.  Pressure   1.00000 Atm.
 Atom     1 has atomic number  6 and mass  12.00000

 Molecular mass:   314.09217 amu.
 Principal axes and moments of inertia in atomic units:
                           1         2         3
     Eigenvalues --  1246.80070********************
           X            0.00000   1.00000   0.00000
           Y            1.00000  -0.00000   0.00000
           Z            0.00000   0.00000   1.00000
 This molecule is an asymmetric top.
 Rotational symmetry number  2.
 Warning -- assumption of classical behavior for rotation
           may cause significant error
 Rotational temperatures (Kelvin)      0.06947     0.00332     0.00316
 Rotational constants (GHZ):           1.44750     0.06908     0.06593
 Zero-point vibrational energy     701547.9 (Joules/Mol)
                                  167.67397 (Kcal/Mol)
 Warning -- explicit consideration of  26 degrees of freedom as
           vibrations may cause significant error
 Vibrational temperatures:     29.37    43.05    50.16    83.74    88.24
          (Kelvin)            129.46   168.80   229.44   307.57   349.74
                              350.36   382.34   438.06   477.84   501.27
                              514.46   588.64   612.40   624.18   707.02
                              718.24   749.19   807.62   835.58   836.06
                              847.82   894.68   896.28   933.47   966.56
                              996.11  1008.54  1078.49  1079.63  1081.11
                             1082.18  1119.74  1159.94  1184.22  1193.06
                             1205.41  1232.84  1232.91  1240.90  1261.50
                             1262.26  1265.22  1341.31  1341.33  1390.69
                             1390.83  1438.80  1453.18  1472.14  1472.18
                             1491.18  1539.26  1577.55  1581.44  1583.97
                             1624.34  1653.09  1658.90  1699.91  1699.95
                             1756.62  1792.37  1803.81  1806.63  1812.55
                             1870.62  1870.62  1900.43  1925.30  1940.30
                             1960.02  2008.23  2029.08  2047.44  2154.46
                             2154.48  2154.57  2156.23  2230.41  2265.05
                             2366.34  2366.70  2374.62  2379.51  2383.73
                             4552.71  4553.50  4563.85  4563.87  4575.99
                             4578.84  4584.77  4584.78  4604.94  4604.94
                             4609.77  4609.80

 Zero-point correction=                           0.267205 (Hartree/Particle)
 Thermal correction to Energy=                    0.284761
 Thermal correction to Enthalpy=                  0.285705
 Thermal correction to Gibbs Free Energy=         0.219756
 Sum of electronic and zero-point Energies=          -1043.993096
 Sum of electronic and thermal Energies=             -1043.975541
 Sum of electronic and thermal Enthalpies=           -1043.974597
 Sum of electronic and thermal Free Energies=        -1044.040546

                     E (Thermal)             CV                S
                      KCal/Mol        Cal/Mol-Kelvin    Cal/Mol-Kelvin
 Total                  178.690             70.757            138.801
 Electronic               0.000              0.000              0.000
 Translational            0.889              2.981             43.130
 Rotational               0.889              2.981             33.766
 Vibrational            176.913             64.796             61.906
 Vibration     1          0.593              1.986              6.594
 Vibration     2          0.594              1.984              5.834
 Vibration     3          0.594              1.983              5.531
 Vibration     4          0.596              1.974              4.517
 Vibration     5          0.597              1.973              4.414
 Vibration     6          0.602              1.956              3.660
 Vibration     7          0.608              1.935              3.144
 Vibration     8          0.621              1.892              2.556
 Vibration     9          0.644              1.820              2.011
 Vibration    10          0.659              1.774              1.780
 Vibration    11          0.659              1.773              1.777
 Vibration    12          0.672              1.736              1.624
 Vibration    13          0.695              1.665              1.392
 Vibration    14          0.714              1.611              1.250
 Vibration    15          0.726              1.579              1.173
 Vibration    16          0.733              1.560              1.133
 Vibration    17          0.773              1.450              0.930
 Vibration    18          0.787              1.414              0.873
 Vibration    19          0.795              1.397              0.846
 Vibration    20          0.847              1.269              0.680
 Vibration    21          0.855              1.252              0.660
 Vibration    22          0.876              1.204              0.608
 Vibration    23          0.917              1.115              0.521
 Vibration    24          0.937              1.073              0.484
 Vibration    25          0.938              1.072              0.483
 Vibration    26          0.947              1.055              0.468

 Optimization completed.
    -- Stationary point found.
 Normal termination of Gaussian 16 at Sun Aug  2 08:07:31 2020.
