 Gaussian 16, Revision C.01,
 Gaussian 16:  ES64L-G16RevC.01  3-Jul-2019

 --------------------------------------------------------------------
 #P B3LYP/6-311++G(d,p) EmpiricalDispersion=GD3 freq(noraman) SCF=YQC
 --------------------------------------------------------------------

 --------------------------------------------------
 Restart from 2_Phenyl_H_Catechol_BoronateEster.log
 --------------------------------------------------
 Symbolic Z-matrix:
 Charge =  0 Multiplicity = 1

                         Standard orientation:
 ---------------------------------------------------------------------
 Center     Atomic      Atomic             Coordinates (Angstroms)
 Number     Number       Type             X           Y           Z
 ---------------------------------------------------------------------
      1          6           0        1.161511    0.698819   -0.000002
      2          6           0        0.000006    1.458904   -0.000001
      3          6           0       -1.161504    0.698826   -0.000002
      4          6           0       -1.161517   -0.698801   -0.000002
      5          6           0       -0.000006   -1.458879   -0.000001
      6          6           0        1.161510   -0.698808   -0.000002
      7          1           0        0.000008    2.539781   -0.000000
      8          1           0       -0.000008   -2.539758   -0.000000
      9          5           0       -3.259065    0.000020   -0.000008
     10          6           0       -4.795493    0.000010   -0.000002
     11          6           0       -5.513256   -1.207917   -0.000000
     12          6           0       -5.513289    1.207916   -0.000000
     13          6           0       -6.905172   -1.209106    0.000004
     14          6           0       -6.905204    1.209067    0.000004
     15          6           0       -7.602026   -0.000029    0.000006
     16          8           0       -2.464453   -1.145269   -0.000001
     17          8           0       -2.464448    1.145304   -0.000001
     18          1           0       -7.447842   -2.147833    0.000005
     19          1           0       -7.447899    2.147780    0.000005
     20          1           0       -4.971821    2.147682   -0.000002
     21          1           0       -4.971763   -2.147668   -0.000002
     22          1           0       -8.686572   -0.000043    0.000009
     23          5           0        3.259065   -0.000009   -0.000008
     24          6           0        4.795493   -0.000014   -0.000002
     25          6           0        5.513267    1.207907   -0.000000
     26          6           0        5.513278   -1.207927   -0.000000
     27          6           0        6.905183    1.209084    0.000004
     28          6           0        6.905193   -1.209090    0.000004
     29          6           0        7.602026   -0.000000    0.000006
     30          8           0        2.464458    1.145285   -0.000001
     31          8           0        2.464444   -1.145288   -0.000001
     32          1           0        7.447861    2.147805    0.000005
     33          1           0        7.447879   -2.147807    0.000005
     34          1           0        4.971802   -2.147688   -0.000002
     35          1           0        4.971782    2.147662   -0.000002
     36          1           0        8.686572    0.000004    0.000009
 ---------------------------------------------------------------------

 SCF Done:  E(RB3LYP) =  -1044.25774401     a.u. after    6 cycles
 SCF Done:  E(RB3LYP) =  -1044.25775366     A.U. after    9 cycles

 The electronic state is 1-A.
 Alpha  occ. eigenvalues --  -19.17265 -19.17264 -19.17263 -19.17262 -10.24841
 Alpha  occ. eigenvalues --  -10.24840 -10.24787 -10.24786 -10.20057 -10.20056
 Alpha  occ. eigenvalues --  -10.18793 -10.18793 -10.18614 -10.18614 -10.18614
 Alpha  occ. eigenvalues --  -10.18614 -10.18365 -10.18365 -10.18362 -10.18362
 Alpha  occ. eigenvalues --  -10.17316 -10.17316  -6.79996  -6.79996  -1.12141
 Alpha  occ. eigenvalues --   -1.11946  -1.04588  -1.04486  -0.87462  -0.86502
 Alpha  occ. eigenvalues --   -0.86400  -0.77890  -0.76375  -0.75858  -0.75725
 Alpha  occ. eigenvalues --   -0.75702  -0.73391  -0.65164  -0.64027  -0.62495
 Alpha  occ. eigenvalues --   -0.61694  -0.61639  -0.60935  -0.58647  -0.58404
 Alpha  occ. eigenvalues --   -0.55756  -0.53987  -0.52611  -0.50172  -0.50060
 Alpha  occ. eigenvalues --   -0.48850  -0.47575  -0.47073  -0.46938  -0.46561
 Alpha  occ. eigenvalues --   -0.46354  -0.45681  -0.44743  -0.43207  -0.43165
 Alpha  occ. eigenvalues --   -0.42112  -0.41546  -0.39626  -0.39297  -0.38328
 Alpha  occ. eigenvalues --   -0.38314  -0.38211  -0.38137  -0.37947  -0.36555
 Alpha  occ. eigenvalues --   -0.35262  -0.35240  -0.34692  -0.34511  -0.34492
 Alpha  occ. eigenvalues --   -0.27739  -0.26796  -0.26645  -0.26591  -0.26179
 Alpha  occ. eigenvalues --   -0.22573
 Alpha virt. eigenvalues --   -0.05646  -0.04889  -0.02522  -0.02274  -0.02220
 Alpha virt. eigenvalues --   -0.01026  -0.00691   0.00201   0.00549   0.00649
 Alpha virt. eigenvalues --    0.01088   0.01424   0.01938   0.02466   0.02726

 Mulliken charges:
               1
     1  C    0.126173
     2  C   -0.609365
     3  C    0.126174
     4  C    0.126169
     5  C   -0.609363
     6  C    0.126170
     7  H    0.175830
     8  H    0.175829
     9  B    0.692370
    10  C   -0.475107
    11  C   -0.012360
    12  C   -0.012366
    13  C   -0.102999
    14  C   -0.102995
    15  C   -0.349877
    16  O   -0.170368
    17  O   -0.170379
    18  H    0.181225
    19  H    0.181224
    20  H    0.186610
    21  H    0.186611
    22  H    0.149603
    23  B    0.692370
    24  C   -0.475106
    25  C   -0.012357
    26  C   -0.012370
    27  C   -0.102999
    28  C   -0.102997
    29  C   -0.349875
    30  O   -0.170371
    31  O   -0.170376
    32  H    0.181225
    33  H    0.181224
    34  H    0.186610
    35  H    0.186612
    36  H    0.149603
 Sum of Mulliken charges =   0.00000

 Dipole moment (field-independent basis, Debye):
    X=             -0.0000    Y=             -0.0000    Z=             -0.0000  Tot=              0.0000
 Quadrupole moment (field-independent basis, Debye-Ang):
   XX=           -110.1296   YY=           -127.9740   ZZ=           -142.9747
   XY=              0.0000   XZ=              0.0000   YZ=             -0.0000

  Exact polarizability:     435.673       0.000     228.255       0.000      -0.000     123.219
 Approx polarizability:     531.722       0.000     416.946       0.000      -0.000     196.894

                      1                      2                      3
                      A                      A                      A
 Frequencies --     22.0405                35.8608                44.5598
 Red. masses --      6.6868                 3.6592                 5.4923
 Frc consts  --      0.0019                 0.0028                 0.0064
 IR Inten    --      0.2793                 0.0000                 0.2101

                      4                      5                      6
                      A                      A                      A
 Frequencies --     53.4271                55.8798                81.2615
 Red. masses --      4.7912                 7.3164                 5.5052
 Frc consts  --      0.0081                 0.0135                 0.0214
 IR Inten    --      0.0000                 0.0000                 0.0000

                      7                      8                      9
                      A                      A                      A
 Frequencies --    126.8505               180.0702               186.9667
 Red. masses --      5.7158                 6.1088                 6.8959
 Frc consts  --      0.0542                 0.1167                 0.1420
 IR Inten    --      0.4457                 0.0000                 0.0000

                     10                     11                     12
                      A                      A                      A
 Frequencies --    193.8006               229.1044               272.2051
 Red. masses --     15.3753                 5.8644                 7.6626
 Frc consts  --      0.3402                 0.1814                 0.3345
 IR Inten    --      0.0000                 0.0942                 0.0157

                     13                     14                     15
                      A                      A                      A
 Frequencies --    300.4332               323.5298               348.9231
 Red. masses --      7.7836                 5.9675                 7.1867
 Frc consts  --      0.4139                 0.3680                 0.5155
 IR Inten    --      1.0554                 0.0000                 0.0000

                     16                     17                     18
                      A                      A                      A
 Frequencies --    368.4744               408.0823               408.0855
 Red. masses --      8.1214                 2.8205                 2.8194
 Frc consts  --      0.6497                 0.2767                 0.2766
 IR Inten    --      0.0000                 0.0000                 0.0000

                     19                     20                     21
                      A                      A                      A
 Frequencies --    418.3436               463.0617               466.2129
 Red. masses --      2.9098                 3.7100                 4.2044
 Frc consts  --      0.3000                 0.4687                 0.5384
 IR Inten    --      6.2976                 4.5608                 0.0000

                     22                     23                     24
                      A                      A                      A
 Frequencies --    476.3908               507.4568               508.9923
 Red. masses --      9.5236                10.7668                 8.5257
 Frc consts  --      1.2734                 1.6336                 1.3014
 IR Inten    --      0.0435                 0.0000                 0.0000

                     25                     26                     27
                      A                      A                      A
 Frequencies --    632.4829               632.9435               671.6231
 Red. masses --      6.4654                 6.4776                 6.8474
 Frc consts  --      1.5238                 1.5289                 1.8198
 IR Inten    --      0.0000                 0.2274                12.3770

                     28                     29                     30
                      A                      A                      A
 Frequencies --    679.2287               679.6912               681.2123
 Red. masses --      5.2368                 5.4079                 7.3079
 Frc consts  --      1.4235                 1.4720                 1.9981
 IR Inten    --     77.3721                 0.0000                 0.0000

                     31                     32                     33
                      A                      A                      A
 Frequencies --    697.0169               710.3007               710.4465
 Red. masses --      5.1059                 1.5932                 1.5916
 Frc consts  --      1.4615                 0.4736                 0.4733
 IR Inten    --      0.0000                 0.0033               120.3217

                     34                     35                     36
                      A                      A                      A
 Frequencies --    716.1819               731.2096               783.0703
 Red. masses --     12.2496                 4.6191                 2.2761
 Frc consts  --      3.7018                 1.4551                 0.8223
 IR Inten    --      0.0000                 0.0000                17.8744

                     37                     38                     39
                      A                      A                      A
 Frequencies --    783.3207               784.8407               796.3096
 Red. masses --      2.2912                11.0139                 7.5241
 Frc consts  --      0.8283                 3.9972                 2.8110
 IR Inten    --      0.0001                10.5585                 0.0000

                     40                     41                     42
                      A                      A                      A
 Frequencies --    823.8130               836.1823               838.7932
 Red. masses --     11.4553                11.5041                 1.3847
 Frc consts  --      4.5805                 4.7392                 0.5740
 IR Inten    --      1.9506                 0.0000                 0.0000

                     43                     44                     45
                      A                      A                      A
 Frequencies --    862.9855               868.7363               868.7775
 Red. masses --      1.4498                 1.2472                 1.2472
 Frc consts  --      0.6362                 0.5546                 0.5546
 IR Inten    --     57.6517                 0.0000                 0.0000

                     46                     47                     48
                      A                      A                      A
 Frequencies --    870.2156               949.8609               949.8927
 Red. masses --      2.8049                 1.3840                 1.3843
 Frc consts  --      1.2515                 0.7357                 0.7359
 IR Inten    --    147.0046                 1.3756                 0.0004

                     49                     50                     51
                      A                      A                      A
 Frequencies --    998.8943               998.9012              1011.1881
 Red. masses --      1.3878                 1.3878                 1.3011
 Frc consts  --      0.8159                 0.8159                 0.7839
 IR Inten    --      0.0000                 0.0000                 0.0015

                     52                     53                     54
                      A                      A                      A
 Frequencies --   1011.2012              1013.9924              1014.0569
 Red. masses --      1.3013                 6.1742                 6.2190
 Frc consts  --      0.7840                 3.7402                 3.7679
 IR Inten    --      0.0000                 0.1328                 0.0000

                     55                     56                     57
                      A                      A                      A
 Frequencies --   1042.4557              1043.8901              1079.0339
 Red. masses --      3.3555                 3.2111                12.8645
 Frc consts  --      2.1485                 2.0617                 8.8250
 IR Inten    --    105.1218                 0.0000                 0.0000

                     58                     59                     60
                      A                      A                      A
 Frequencies --   1083.4095              1092.2850              1093.5013
 Red. masses --      2.4048                 3.0277                 1.9999
 Frc consts  --      1.6631                 2.1283                 1.4090
 IR Inten    --     45.1626                 0.0000                41.7752

                     61                     62                     63
                      A                      A                      A
 Frequencies --   1096.1118              1128.8793              1148.6973
 Red. masses --      1.7497                 5.3971                 2.4076
 Frc consts  --      1.2386                 4.0523                 1.8717
 IR Inten    --      0.0000                28.0516               789.1683

                     64                     65                     66
                      A                      A                      A
 Frequencies --   1181.0870              1192.5235              1192.5638
 Red. masses --      1.8573                 1.1321                 1.1318
 Frc consts  --      1.5265                 0.9485                 0.9484
 IR Inten    --      0.0000                 0.9684                 0.0003

                     67                     68                     69
                      A                      A                      A
 Frequencies --   1212.9856              1213.0198              1240.5520
 Red. masses --      1.1442                 1.1446                 2.7548
 Frc consts  --      0.9919                 0.9923                 2.4979
 IR Inten    --      0.0043                10.0836                 0.0000

                     70                     71                     72
                      A                      A                      A
 Frequencies --   1269.1312              1322.7220              1325.9966
 Red. masses --      7.2191                 4.1105                 4.4674
 Frc consts  --      6.8509                 4.2373                 4.6280
 IR Inten    --     92.0800                 0.0000                16.8009

                     73                     74                     75
                      A                      A                      A
 Frequencies --   1349.4524              1351.8731              1356.5576
 Red. masses --      7.2786                10.8447                 1.5330
 Frc consts  --      7.8093                11.6772                 1.6622
 IR Inten    --    413.0715                 0.0000                 6.4078

                     76                     77                     78
                      A                      A                      A
 Frequencies --   1356.5638              1387.9320              1390.7723
 Red. masses --      1.5388                 5.0366                 5.1483
 Frc consts  --      1.6685                 5.7164                 5.8671
 IR Inten    --      0.0447              1436.5661                 0.0000

                     79                     80                     81
                      A                      A                      A
 Frequencies --   1466.6793              1466.8601              1494.4468
 Red. masses --      2.1204                 2.1313                 3.9786
 Frc consts  --      2.6875                 2.7019                 5.2353
 IR Inten    --      0.0002                31.1490               169.1735

                     82                     83                     84
                      A                      A                      A
 Frequencies --   1498.6584              1530.5328              1531.7359
 Red. masses --      9.8938                 2.4079                 2.5096
 Frc consts  --     13.0924                 3.3234                 3.4691
 IR Inten    --      1.5355                 0.0000                27.1924

                     85                     86                     87
                      A                      A                      A
 Frequencies --   1609.3662              1609.8285              1643.0750
 Red. masses --      4.9755                 4.9704                 5.3746
 Frc consts  --      7.5927                 7.5893                 8.5489
 IR Inten    --      0.0000                 0.1742                 0.0001

                     88                     89                     90
                      A                      A                      A
 Frequencies --   1643.5583              1656.1095              1662.5761
 Red. masses --      5.3252                 8.2909                10.1533
 Frc consts  --      8.4753                13.3977                16.5355
 IR Inten    --     72.8617                 0.0000                 0.0000

                     91                     92                     93
                      A                      A                      A
 Frequencies --   3157.0148              3157.0214              3164.6379
 Red. masses --      1.0855                 1.0855                 1.0875
 Frc consts  --      6.3741                 6.3741                 6.4168
 IR Inten    --      0.7151                 0.2237                 0.3791

                     94                     95                     96
                      A                      A                      A
 Frequencies --   3164.6453              3172.3985              3172.4017
 Red. masses --      1.0875                 1.0914                 1.0914
 Frc consts  --      6.4169                 6.4718                 6.4718
 IR Inten    --      0.7167                13.1423                 3.6694

                     97                     98                     99
                      A                      A                      A
 Frequencies --   3180.4904              3180.5025              3187.8553
 Red. masses --      1.0946                 1.0946                 1.0983
 Frc consts  --      6.5239                 6.5239                 6.5763
 IR Inten    --      4.8230                44.9675                37.7273

                    100                    101                    102
                      A                      A                      A
 Frequencies --   3187.9067              3219.7620              3220.8405
 Red. masses --      1.0983                 1.0941                 1.0941
 Frc consts  --      6.5765                 6.6825                 6.6870
 IR Inten    --      0.1331                 0.2450                 0.0000

 - Thermochemistry -
 -------------------
 Temperature   298.150 Kelvin.  Pressure   1.00000 Atm.
 Atom     1 has atomic number  6 and mass  12.00000

 Molecular mass:   314.09217 amu.
 Principal axes and moments of inertia in atomic units:
                           1         2         3
     Eigenvalues --  1245.73260********************
           X            1.00000   0.00000   0.00000
           Y           -0.00000   1.00000   0.00000
           Z           -0.00000  -0.00000   1.00000
 This molecule is an asymmetric top.
 Rotational symmetry number  1.
 Warning -- assumption of classical behavior for rotation
           may cause significant error
 Rotational temperatures (Kelvin)      0.06953     0.00354     0.00337
 Rotational constants (GHZ):           1.44874     0.07379     0.07021
 Zero-point vibrational energy     701121.0 (Joules/Mol)
                                  167.57195 (Kcal/Mol)
 Warning -- explicit consideration of  24 degrees of freedom as
           vibrations may cause significant error
 Vibrational temperatures:     31.71    51.60    64.11    76.87    80.40
          (Kelvin)            116.92   182.51   259.08   269.00   278.84
                              329.63   391.64   432.26   465.49   502.02
                              530.15   587.14   587.14   601.90   666.24
                              670.78   685.42   730.12   732.33   910.00
                              910.66   966.32   977.26   977.92   980.11
                             1002.85  1021.96  1022.17  1030.43  1052.05
                             1126.66  1127.02  1129.21  1145.71  1185.28
                             1203.08  1206.84  1241.64  1249.92  1249.98
                             1252.05  1366.64  1366.68  1437.19  1437.20
                             1454.87  1454.89  1458.91  1459.00  1499.86
                             1501.92  1552.49  1558.78  1571.55  1573.30
                             1577.06  1624.21  1652.72  1699.32  1715.78
                             1715.83  1745.22  1745.26  1784.88  1826.00
                             1903.10  1907.81  1941.56  1945.04  1951.78
                             1951.79  1996.92  2001.01  2110.22  2110.48
                             2150.18  2156.24  2202.10  2203.83  2315.52
                             2316.18  2364.02  2364.71  2382.77  2392.08
                             4542.24  4542.25  4553.21  4553.22  4564.37
                             4564.38  4576.02  4576.03  4586.61  4586.69
                             4632.52  4634.07

 Zero-point correction=                           0.267043 (Hartree/Particle)
 Thermal correction to Energy=                    0.284757
 Thermal correction to Enthalpy=                  0.285702
 Thermal correction to Gibbs Free Energy=         0.219051
 Sum of electronic and zero-point Energies=          -1043.990711
 Sum of electronic and thermal Energies=             -1043.972996
 Sum of electronic and thermal Enthalpies=           -1043.972052
 Sum of electronic and thermal Free Energies=        -1044.038702

                     E (Thermal)             CV                S
                      KCal/Mol        Cal/Mol-Kelvin    Cal/Mol-Kelvin
 Total                  178.688             70.908            140.277
 Electronic               0.000              0.000              0.000
 Translational            0.889              2.981             43.130
 Rotational               0.889              2.981             35.014
 Vibrational            176.911             64.946             62.134
 Vibration     1          0.593              1.985              6.441
 Vibration     2          0.594              1.982              5.476
 Vibration     3          0.595              1.980              5.045
 Vibration     4          0.596              1.976              4.686
 Vibration     5          0.596              1.975              4.598
 Vibration     6          0.600              1.962              3.860
 Vibration     7          0.611              1.926              2.993
 Vibration     8          0.629              1.867              2.328
 Vibration     9          0.632              1.858              2.258
 Vibration    10          0.635              1.848              2.191
 Vibration    11          0.652              1.797              1.886
 Vibration    12          0.675              1.725              1.582
 Vibration    13          0.693              1.673              1.414
 Vibration    14          0.708              1.628              1.292
 Vibration    15          0.726              1.577              1.171
 Vibration    16          0.741              1.537              1.086
 Vibration    17          0.773              1.453              0.933
 Vibration    18          0.773              1.453              0.933
 Vibration    19          0.781              1.430              0.898
 Vibration    20          0.821              1.332              0.757
 Vibration    21          0.824              1.325              0.748
 Vibration    22          0.833              1.302              0.720
 Vibration    23          0.863              1.233              0.640
 Vibration    24          0.864              1.230              0.636

 Optimization completed.
    -- Stationary point found.
 Normal termination of Gaussian 16 at Thu Jul 30 21:58:12 2020.
