 Gaussian 16, Revision C.01,
 Gaussian 16:  ES64L-G16RevC.01  3-Jul-2019

 ----------------------------------------------------------------------
 #P B3LYP/6-311++G(d,p) EmpiricalDispersion=GD3 freq(noraman) SCF=YQC N
 oSymm
 ----------------------------------------------------------------------

 -------------------------------------
 Restart from F_Aldehyde_Hydrazone.log
 -------------------------------------
 Symbolic Z-matrix:
 Charge =  0 Multiplicity = 1

                          Input orientation:
 ---------------------------------------------------------------------
 Center     Atomic      Atomic             Coordinates (Angstroms)
 Number     Number       Type             X           Y           Z
 ---------------------------------------------------------------------
      1          9           0        1.142541   -2.461035    0.183162
      2          6           0        0.615869   -1.240474    0.089333
      3          6           0       -0.761955   -1.120958    0.151118
      4          9           0       -1.484861   -2.248771    0.301358
      5          6           0       -1.432581    0.109099    0.066310
      6          6           0       -0.615869    1.240474   -0.089341
      7          9           0       -1.142541    2.461035   -0.183170
      8          6           0        0.761955    1.120957   -0.151126
      9          9           0        1.484861    2.248771   -0.301366
     10          6           0        1.432581   -0.109099   -0.066318
     11          1           0       -9.543666   -0.298653   -0.915124
     12          6           0       -9.125299    0.562885   -0.407586
     13          6           0       -9.961734    1.459104    0.255460
     14          1           0      -11.032034    1.287903    0.275461
     15          6           0       -9.421270    2.582956    0.882161
     16          1           0      -10.070890    3.285660    1.391186
     17          6           0       -8.049411    2.807392    0.850569
     18          1           0       -7.614250    3.683325    1.315836
     19          6           0       -7.200816    1.899482    0.206975
     20          6           0       -5.733756    2.215470    0.203162
     21          6           0       -7.749059    0.779258   -0.430369
     22          1           0       -7.116402    0.092892   -0.982480
     23          8           0       -5.300721    3.343749    0.260232
     24          7           0       -4.911083    1.087281    0.149681
     25          1           0       -5.326047    0.167839    0.279605
     26          7           0       -3.571957    1.209047    0.081211
     27          6           0       -2.887745    0.125177    0.142297
     28          1           0       -3.366315   -0.852178    0.254956
     29          1           0        9.543659    0.298657    0.915131
     30          6           0        9.125295   -0.562883    0.407593
     31          6           0        9.961735   -1.459104   -0.255445
     32          1           0       11.032035   -1.287902   -0.275441
     33          6           0        9.421274   -2.582958   -0.882147
     34          1           0       10.070896   -3.285663   -1.391166
     35          6           0        8.049414   -2.807394   -0.850562
     36          1           0        7.614256   -3.683328   -1.315829
     37          6           0        7.200816   -1.899483   -0.206976
     38          6           0        5.733756   -2.215470   -0.203170
     39          6           0        7.749055   -0.779256    0.430369
     40          1           0        7.116394   -0.092889    0.982474
     41          8           0        5.300721   -3.343750   -0.260234
     42          7           0        4.911083   -1.087281   -0.149689
     43          1           0        5.326047   -0.167839   -0.279613
     44          7           0        3.571957   -1.209047   -0.081219
     45          6           0        2.887745   -0.125177   -0.142305
     46          1           0        3.366315    0.852178   -0.254964
 ---------------------------------------------------------------------

 SCF Done:  E(RB3LYP) =  -1615.99993948     a.u. after    8 cycles
 SCF Done:  E(RB3LYP) =  -1615.99999363     A.U. after   10 cycles

 Alpha  occ. eigenvalues --  -24.72404 -24.72404 -24.71331 -24.71331 -19.10957
 Alpha  occ. eigenvalues --  -19.10957 -14.39957 -14.39957 -14.38082 -14.38082
 Alpha  occ. eigenvalues --  -10.29860 -10.29859 -10.29801 -10.29800 -10.29648
 Alpha  occ. eigenvalues --  -10.29648 -10.24521 -10.24521 -10.23851 -10.23849
 Alpha  occ. eigenvalues --  -10.20831 -10.20831 -10.20465 -10.20465 -10.19917
 Alpha  occ. eigenvalues --  -10.19917 -10.19852 -10.19852 -10.19635 -10.19635
 Alpha  occ. eigenvalues --  -10.19576 -10.19576  -1.27002  -1.26939  -1.25321
 Alpha  occ. eigenvalues --   -1.25281  -1.07860  -1.07859  -1.03021  -1.03015
 Alpha  occ. eigenvalues --   -0.92146  -0.89178  -0.88717  -0.87710  -0.86634
 Alpha  occ. eigenvalues --   -0.81672  -0.78820  -0.78397  -0.77776  -0.77233
 Alpha  occ. eigenvalues --   -0.77205  -0.73203  -0.68173  -0.67140  -0.66067
 Alpha  occ. eigenvalues --   -0.64483  -0.63892  -0.63074  -0.62846  -0.61633
 Alpha  occ. eigenvalues --   -0.61456  -0.60794  -0.59259  -0.58335  -0.56082
 Alpha  occ. eigenvalues --   -0.56030  -0.55431  -0.55110  -0.53070  -0.52798
 Alpha  occ. eigenvalues --   -0.51175  -0.50854  -0.50634  -0.49838  -0.48627
 Alpha  occ. eigenvalues --   -0.48450  -0.48325  -0.48042  -0.47806  -0.47692
 Alpha  occ. eigenvalues --   -0.46773  -0.46743  -0.45496  -0.45447  -0.45323
 Alpha  occ. eigenvalues --   -0.44654  -0.44646  -0.43931  -0.43887  -0.42824
 Alpha  occ. eigenvalues --   -0.41113  -0.40882  -0.40660  -0.40562  -0.38755
 Alpha  occ. eigenvalues --   -0.38274  -0.38222  -0.37993  -0.37054  -0.36890
 Alpha  occ. eigenvalues --   -0.36612  -0.32700  -0.31404  -0.31223  -0.28729
 Alpha  occ. eigenvalues --   -0.28663  -0.28107  -0.28077  -0.27457  -0.27181
 Alpha  occ. eigenvalues --   -0.27181  -0.26939  -0.24025
 Alpha virt. eigenvalues --   -0.10520  -0.06708  -0.05464  -0.03771  -0.03697
 Alpha virt. eigenvalues --   -0.03171  -0.02820  -0.02603  -0.02075  -0.01306
 Alpha virt. eigenvalues --   -0.00516  -0.00101   0.00713   0.00896   0.01443

 Mulliken charges:
               1
     1  F   -0.118370
     2  C   -0.572588
     3  C   -1.288559
     4  F   -0.186362
     5  C    1.711175
     6  C   -0.572586
     7  F   -0.118370
     8  C   -1.288563
     9  F   -0.186362
    10  C    1.711178
    11  H    0.184179
    12  C   -0.160321
    13  C   -0.319780
    14  H    0.160912
    15  C   -0.244488
    16  H    0.177867
    17  C   -0.166841
    18  H    0.207990
    19  C    1.087159
    20  C   -0.538293
    21  C   -0.430533
    22  H    0.154448
    23  O   -0.274139
    24  N   -0.172852
    25  H    0.207751
    26  N    0.268108
    27  C    0.177712
    28  H    0.135826
    29  H    0.184179
    30  C   -0.160320
    31  C   -0.319781
    32  H    0.160912
    33  C   -0.244487
    34  H    0.177867
    35  C   -0.166848
    36  H    0.207990
    37  C    1.087157
    38  C   -0.538289
    39  C   -0.430529
    40  H    0.154447
    41  O   -0.274140
    42  N   -0.172851
    43  H    0.207751
    44  N    0.268107
    45  C    0.177713
    46  H    0.135826
 Sum of Mulliken charges =   0.00000

 Dipole moment (field-independent basis, Debye):
    X=             -0.0000    Y=              0.0000    Z=             -0.0000  Tot=              0.0000
 Quadrupole moment (field-independent basis, Debye-Ang):
   XX=            -92.3028   YY=           -214.6521   ZZ=           -180.5121
   XY=             27.5790   XZ=             -4.6973   YZ=              7.1265

  Exact polarizability:     696.013    -101.866     303.345     -20.506      29.505     168.007
 Approx polarizability:     798.878     -96.294     545.106     -22.606      55.255     273.694

                      1                      2                      3
                      A                      A                      A
 Frequencies --      9.3846                14.5179                16.9535
 Red. masses --      7.6375                 5.3935                 7.4897
 Frc consts  --      0.0004                 0.0007                 0.0013
 IR Inten    --      0.1393                 6.8074                 0.0000

                      4                      5                      6
                      A                      A                      A
 Frequencies --     19.8713                29.1479                42.0723
 Red. masses --      7.0944                 6.1262                 7.1482
 Frc consts  --      0.0017                 0.0031                 0.0075
 IR Inten    --      2.3676                 0.0000                 0.0000

                      7                      8                      9
                      A                      A                      A
 Frequencies --     43.9707                58.3856                85.6845
 Red. masses --      5.4950                 6.1616                 7.3077
 Frc consts  --      0.0063                 0.0124                 0.0316
 IR Inten    --      2.4031                 0.0000                 5.2850

                     10                     11                     12
                      A                      A                      A
 Frequencies --     94.9297               104.4874               113.9343
 Red. masses --      7.7107                 6.2805                 9.3383
 Frc consts  --      0.0409                 0.0404                 0.0714
 IR Inten    --      0.0000                 7.8200                 0.0000

                     13                     14                     15
                      A                      A                      A
 Frequencies --    126.3303               158.2284               164.8718
 Red. masses --     18.2582                 5.5410                 6.3887
 Frc consts  --      0.1717                 0.0817                 0.1023
 IR Inten    --      0.0037                 0.0000                 4.8594

                     16                     17                     18
                      A                      A                      A
 Frequencies --    180.0605               181.7863               196.3164
 Red. masses --      5.8627                 4.0767                 9.9031
 Frc consts  --      0.1120                 0.0794                 0.2249
 IR Inten    --      0.0000                24.5517                 8.3081

                     19                     20                     21
                      A                      A                      A
 Frequencies --    198.5030               213.3563               238.9144
 Red. masses --      4.0278                 5.2658                 7.5001
 Frc consts  --      0.0935                 0.1412                 0.2522
 IR Inten    --      0.0000                 4.5183                 0.0000

                     22                     23                     24
                      A                      A                      A
 Frequencies --    255.0302               284.8405               314.6566
 Red. masses --      6.0174                 6.8617                16.8561
 Frc consts  --      0.2306                 0.3280                 0.9833
 IR Inten    --     22.4978                 0.0000                 0.0000

                     25                     26                     27
                      A                      A                      A
 Frequencies --    324.4458               335.1053               348.8625
 Red. masses --     18.3296                 7.6868                10.1798
 Frc consts  --      1.1368                 0.5086                 0.7300
 IR Inten    --      1.0303                 8.5516                 9.0936

                     28                     29                     30
                      A                      A                      A
 Frequencies --    366.1158               402.6568               404.0901
 Red. masses --      8.8271                 7.5779                 6.1268
 Frc consts  --      0.6971                 0.7239                 0.5894
 IR Inten    --      0.0000                 6.0566                 0.0000

                     31                     32                     33
                      A                      A                      A
 Frequencies --    412.8911               413.0873               413.3189
 Red. masses --      3.0095                 2.9770                11.7642
 Frc consts  --      0.3023                 0.2993                 1.1841
 IR Inten    --      0.1474                 0.0000                 0.0000

                     34                     35                     36
                      A                      A                      A
 Frequencies --    418.9532               419.1435               452.1942
 Red. masses --      6.0829                 6.5632                 9.0717
 Frc consts  --      0.6291                 0.6793                 1.0929
 IR Inten    --     14.5461                 0.0000                 0.0000

                     37                     38                     39
                      A                      A                      A
 Frequencies --    455.3171               462.5817               489.1754
 Red. masses --     11.8093                 6.1351                 8.3976
 Frc consts  --      1.4425                 0.7735                 1.1839
 IR Inten    --      0.0000                 1.2739                 0.0000

                     40                     41                     42
                      A                      A                      A
 Frequencies --    530.4646               536.2629               551.1637
 Red. masses --      5.2271                 3.6536                 1.2458
 Frc consts  --      0.8666                 0.6191                 0.2230
 IR Inten    --      0.0000                10.1254                 0.0000

                     43                     44                     45
                      A                      A                      A
 Frequencies --    552.7625               632.1280               632.1308
 Red. masses --      1.3548                 6.2610                 6.2570
 Frc consts  --      0.2439                 1.4740                 1.4731
 IR Inten    --    108.9427                 0.0007                 3.5758

                     46                     47                     48
                      A                      A                      A
 Frequencies --    661.9372               665.3086               680.4647
 Red. masses --      6.4887                 9.0243                12.0883
 Frc consts  --      1.6751                 2.3535                 3.2978
 IR Inten    --      0.0000                 4.7850                 0.5045

                     49                     50                     51
                      A                      A                      A
 Frequencies --    682.4174               688.3399               693.4852
 Red. masses --     10.6262                 7.2149                 6.3219
 Frc consts  --      2.9156                 2.0141                 1.7913
 IR Inten    --      0.0000                80.9324                31.0753

                     52                     53                     54
                      A                      A                      A
 Frequencies --    695.0859               704.8396               704.8597
 Red. masses --      5.8121                 2.6311                 2.6654
 Frc consts  --      1.6545                 0.7701                 0.7802
 IR Inten    --      0.0000                40.0642                 0.0004

                     55                     56                     57
                      A                      A                      A
 Frequencies --    720.0790               720.3340               803.0190
 Red. masses --      1.9161                 1.9512                 2.9590
 Frc consts  --      0.5854                 0.5965                 1.1242
 IR Inten    --      0.0000               118.7564                 0.0000

                     58                     59                     60
                      A                      A                      A
 Frequencies --    804.7139               828.4605               859.3451
 Red. masses --      2.7813                 8.4861                 1.2480
 Frc consts  --      1.0612                 3.4317                 0.5430
 IR Inten    --     15.7238                 0.0000                 3.6009

                     61                     62                     63
                      A                      A                      A
 Frequencies --    859.4081               890.6817               914.8089
 Red. masses --      1.2489                 8.4588                 7.3810
 Frc consts  --      0.5435                 3.9537                 3.6394
 IR Inten    --      0.0006                19.8597                 0.0000

                     64                     65                     66
                      A                      A                      A
 Frequencies --    943.5003               943.9156               949.8149
 Red. masses --      1.4264                 1.4246                 1.5052
 Frc consts  --      0.7482                 0.7478                 0.8000
 IR Inten    --      0.8606                 0.0000                 0.0000

                     67                     68                     69
                      A                      A                      A
 Frequencies --    951.0088               969.4602               992.9446
 Red. masses --      1.5209                 7.0329                 1.3738
 Frc consts  --      0.8104                 3.8944                 0.7981
 IR Inten    --     26.1759               266.6612                 4.8314

                     70                     71                     72
                      A                      A                      A
 Frequencies --    992.9547              1011.7223              1011.7960
 Red. masses --      1.3735                 1.3515                 1.3578
 Frc consts  --      0.7979                 0.8151                 0.8190
 IR Inten    --      0.0023                 0.3076                 0.0000

                     73                     74                     75
                      A                      A                      A
 Frequencies --   1015.2621              1015.7872              1021.6843
 Red. masses --      5.8848                 5.3165                 7.3601
 Frc consts  --      3.5739                 3.2321                 4.5265
 IR Inten    --      3.4740                 0.0000               166.1030

                     76                     77                     78
                      A                      A                      A
 Frequencies --   1046.6027              1052.5904              1075.4731
 Red. masses --      2.7667                 2.2896                 3.0026
 Frc consts  --      1.7856                 1.4946                 2.0462
 IR Inten    --      0.0000                 5.1600                 0.0000

                     79                     80                     81
                      A                      A                      A
 Frequencies --   1089.1313              1112.3649              1113.9284
 Red. masses --      3.3486                 7.3228                 1.7318
 Frc consts  --      2.3403                 5.3385                 1.2661
 IR Inten    --    112.5582                 0.0000                 0.0000

                     82                     83                     84
                      A                      A                      A
 Frequencies --   1114.6952              1160.1919              1171.8408
 Red. masses --      1.8422                 8.2433                 4.8624
 Frc consts  --      1.3486                 6.5375                 3.9341
 IR Inten    --     22.6868                 0.0000              1287.5387

                     85                     86                     87
                      A                      A                      A
 Frequencies --   1193.8410              1193.8703              1210.1615
 Red. masses --      1.1269                 1.1276                 1.6482
 Frc consts  --      0.9463                 0.9470                 1.4222
 IR Inten    --      0.0002                 0.4328                 0.0000

                     88                     89                     90
                      A                      A                      A
 Frequencies --   1212.1586              1216.2801              1244.7195
 Red. masses --      1.1533                 1.9988                 3.4597
 Frc consts  --      0.9984                 1.7422                 3.1581
 IR Inten    --    130.2745                 0.0000              1127.0689

                     91                     92                     93
                      A                      A                      A
 Frequencies --   1250.4907              1303.2415              1333.1009
 Red. masses --      3.2215                 4.8771                 3.6105
 Frc consts  --      2.9680                 4.8805                 3.7805
 IR Inten    --      0.0000               111.1728                 2.7506

                     94                     95                     96
                      A                      A                      A
 Frequencies --   1333.1432              1336.3483              1355.7946
 Red. masses --      3.6132                 9.6988                 1.5937
 Frc consts  --      3.7836                10.2048                 1.7260
 IR Inten    --      0.0006                39.8384                 3.6598

                     97                     98                     99
                      A                      A                      A
 Frequencies --   1355.8059              1396.8988              1411.5062
 Red. masses --      1.5922                 1.6238                 1.5089
 Frc consts  --      1.7244                 1.8669                 1.7712
 IR Inten    --      0.0082                 0.0000               107.3480

                    100                    101                    102
                      A                      A                      A
 Frequencies --   1412.6172              1468.1091              1475.8477
 Red. masses --      4.4926                 5.1933                 2.1751
 Frc consts  --      5.2820                 6.5949                 2.7914
 IR Inten    --      0.0000               137.9067                 0.0000

                    103                    104                    105
                      A                      A                      A
 Frequencies --   1476.7960              1509.4585              1521.4855
 Red. masses --      2.3728                 9.7500                 2.1148
 Frc consts  --      3.0489                13.0887                 2.8844
 IR Inten    --     10.0886               311.4545                 0.0000

                    106                    107                    108
                      A                      A                      A
 Frequencies --   1522.0795              1549.4879              1551.1062
 Red. masses --      2.1617                 1.7550                 1.8258
 Frc consts  --      2.9507                 2.4826                 2.5881
 IR Inten    --     34.8964                 0.0000              1353.4035

                    109                    110                    111
                      A                      A                      A
 Frequencies --   1586.4994              1618.6723              1618.6744
 Red. masses --     12.1194                 5.3966                 5.3956
 Frc consts  --     17.9726                 8.3309                 8.3294
 IR Inten    --      0.0000                 2.1790                 7.4302

                    112                    113                    114
                      A                      A                      A
 Frequencies --   1640.3587              1640.4937              1648.5272
 Red. masses --      5.4044                 5.3844                 6.0226
 Frc consts  --      8.5678                 8.5377                 9.6433
 IR Inten    --      0.0006                29.4650                 0.0000

                    115                    116                    117
                      A                      A                      A
 Frequencies --   1656.6427              1677.4305              1767.8233
 Red. masses --      6.5059                10.5461                10.9905
 Frc consts  --     10.5200                17.4836                20.2370
 IR Inten    --     75.9674                 0.0000               632.8473

                    118                    119                    120
                      A                      A                      A
 Frequencies --   1769.8232              3055.6540              3056.1781
 Red. masses --     11.1786                 1.0863                 1.0866
 Frc consts  --     20.6298                 5.9761                 5.9795
 IR Inten    --      0.0005               104.0135                 0.0000

                    121                    122                    123
                      A                      A                      A
 Frequencies --   3160.6103              3160.6240              3168.6535
 Red. masses --      1.0865                 1.0865                 1.0883
 Frc consts  --      6.3945                 6.3945                 6.4380
 IR Inten    --     14.4006                 0.0013                 5.0057

                    124                    125                    126
                      A                      A                      A
 Frequencies --   3168.6571              3179.2259              3179.2290
 Red. masses --      1.0883                 1.0919                 1.0919
 Frc consts  --      6.4380                 6.5024                 6.5024
 IR Inten    --      1.9787                25.7174                 7.6073

                    127                    128                    129
                      A                      A                      A
 Frequencies --   3189.4518              3189.4575              3198.4531
 Red. masses --      1.0958                 1.0958                 1.0954
 Frc consts  --      6.5679                 6.5679                 6.6026
 IR Inten    --     25.2004                 0.0875                17.9190

                    130                    131                    132
                      A                      A                      A
 Frequencies --   3198.4643              3486.7489              3486.7805
 Red. masses --      1.0954                 1.0761                 1.0761
 Frc consts  --      6.6027                 7.7079                 7.7081
 IR Inten    --      0.6681                 4.6124                 0.0000

 - Thermochemistry -
 -------------------
 Temperature   298.150 Kelvin.  Pressure   1.00000 Atm.
 Atom     1 has atomic number  9 and mass  18.99840

 Molecular mass:   442.10529 amu.
 Principal axes and moments of inertia in atomic units:
                           1         2         3
     Eigenvalues --  3062.56942********************
           X            0.97217   0.23340   0.02043
           Y           -0.23241   0.97171  -0.04192
           Z           -0.02964   0.03600   0.99891
 This molecule is an asymmetric top.
 Rotational symmetry number  1.
 Warning -- assumption of classical behavior for rotation
           may cause significant error
 Rotational temperatures (Kelvin)      0.02828     0.00155     0.00148
 Rotational constants (GHZ):           0.58929     0.03224     0.03076
 Zero-point vibrational energy     851566.6 (Joules/Mol)
                                  203.52931 (Kcal/Mol)
 Warning -- explicit consideration of  43 degrees of freedom as
           vibrations may cause significant error
 Vibrational temperatures:     13.50    20.89    24.39    28.59    41.94
          (Kelvin)             60.53    63.26    84.00   123.28   136.58
                              150.33   163.93   181.76   227.66   237.21
                              259.07   261.55   282.46   285.60   306.97
                              343.74   366.93   409.82   452.72   466.81
                              482.14   501.94   526.76   579.33   581.40
                              594.06   594.34   594.67   602.78   603.05
                              650.61   655.10   665.55   703.81   763.22
                              771.56   793.00   795.30   909.49   909.50
                              952.38   957.23   979.04   981.85   990.37
                              997.77  1000.07  1014.11  1014.14  1036.03
                             1036.40  1155.37  1157.80  1191.97  1236.41
                             1236.50  1281.49  1316.21  1357.49  1358.08
                             1366.57  1368.29  1394.84  1428.63  1428.64
                             1455.64  1455.75  1460.74  1461.49  1469.98
                             1505.83  1514.44  1547.37  1567.02  1600.44
                             1602.69  1603.80  1669.26  1686.02  1717.67
                             1717.71  1741.15  1744.03  1749.96  1790.87
                             1799.18  1875.07  1918.03  1918.10  1922.71
                             1950.69  1950.70  2009.83  2030.84  2032.44
                             2112.28  2123.42  2124.78  2171.77  2189.08
                             2189.93  2229.37  2231.70  2282.62  2328.91
                             2328.91  2360.11  2360.30  2371.86  2383.54
                             2413.45  2543.50  2546.38  4396.40  4397.16
                             4547.41  4547.43  4558.99  4558.99  4574.20
                             4574.20  4588.91  4588.92  4601.86  4601.88
                             5016.65  5016.70

 Zero-point correction=                           0.324345 (Hartree/Particle)
 Thermal correction to Energy=                    0.352075
 Thermal correction to Enthalpy=                  0.353019
 Thermal correction to Gibbs Free Energy=         0.260400
 Sum of electronic and zero-point Energies=          -1615.675649
 Sum of electronic and thermal Energies=             -1615.647919
 Sum of electronic and thermal Enthalpies=           -1615.646974
 Sum of electronic and thermal Free Energies=        -1615.739594

                     E (Thermal)             CV                S
                      KCal/Mol        Cal/Mol-Kelvin    Cal/Mol-Kelvin
 Total                  220.930            103.777            194.933
 Electronic               0.000              0.000              0.000
 Translational            0.889              2.981             44.149
 Rotational               0.889              2.981             37.551
 Vibrational            219.153             97.816            113.234
 Vibration     1          0.593              1.987              8.137
 Vibration     2          0.593              1.986              7.270
 Vibration     3          0.593              1.986              6.962
 Vibration     4          0.593              1.986              6.647
 Vibration     5          0.593              1.984              5.887
 Vibration     6          0.595              1.980              5.159
 Vibration     7          0.595              1.980              5.072
 Vibration     8          0.596              1.974              4.511
 Vibration     9          0.601              1.959              3.756
 Vibration    10          0.603              1.953              3.556
 Vibration    11          0.605              1.946              3.369
 Vibration    12          0.607              1.938              3.201
 Vibration    13          0.611              1.927              3.001
 Vibration    14          0.621              1.893              2.571
 Vibration    15          0.623              1.886              2.493
 Vibration    16          0.629              1.867              2.328
 Vibration    17          0.630              1.865              2.310
 Vibration    18          0.636              1.845              2.167
 Vibration    19          0.637              1.842              2.147
 Vibration    20          0.644              1.821              2.015
 Vibration    21          0.657              1.781              1.811
 Vibration    22          0.665              1.754              1.696
 Vibration    23          0.683              1.702              1.504
 Vibration    24          0.702              1.646              1.338
 Vibration    25          0.709              1.627              1.288
 Vibration    26          0.716              1.605              1.235
 Vibration    27          0.726              1.578              1.171
 Vibration    28          0.739              1.542              1.096
 Vibration    29          0.768              1.464              0.953
 Vibration    30          0.769              1.461              0.948
 Vibration    31          0.777              1.442              0.916
 Vibration    32          0.777              1.442              0.916
 Vibration    33          0.777              1.441              0.915
 Vibration    34          0.782              1.429              0.896
 Vibration    35          0.782              1.429              0.895
 Vibration    36          0.811              1.356              0.789
 Vibration    37          0.814              1.349              0.780
 Vibration    38          0.820              1.333              0.759
 Vibration    39          0.845              1.274              0.686
 Vibration    40          0.885              1.183              0.586
 Vibration    41          0.891              1.170              0.573
 Vibration    42          0.906              1.137              0.542
 Vibration    43          0.908              1.134              0.538

 Normal termination of Gaussian 16 at Sat Oct 17 03:02:18 2020.
