 Gaussian 16, Revision C.01,
 Gaussian 16:  ES64L-G16RevC.01  3-Jul-2019

 --------------------------------------------------------------------
 #P B3LYP/6-311++G(d,p) EmpiricalDispersion=GD3 freq(noraman) SCF=YQC
 --------------------------------------------------------------------

 ----------------------------------------
 Restart from 2_Phenyl_Aldehyde_Azine.log
 ----------------------------------------
 Symbolic Z-matrix:
 Charge =  0 Multiplicity = 1

                         Standard orientation:
 ---------------------------------------------------------------------
 Center     Atomic      Atomic             Coordinates (Angstroms)
 Number     Number       Type             X           Y           Z
 ---------------------------------------------------------------------
      1          6           0        0.290819    1.378338    0.000003
      2          6           0       -0.290819   -1.378338    0.000003
      3          6           0       -1.041766    0.933240    0.000003
      4          6           0        1.041766   -0.933240    0.000003
      5          6           0       -1.323262   -0.423020   -0.000021
      6          6           0        1.323262    0.423020   -0.000021
      7          1           0        2.355752    0.757075   -0.000033
      8          1           0       -2.355752   -0.757075   -0.000033
      9          1           0        1.838993   -1.665662    0.000016
     10          1           0       -1.838993    1.665662    0.000016
     11          6           0        0.636228    2.796527    0.000080
     12          7           0       -0.256910    3.720566    0.000226
     13          1           0        1.696624    3.064504   -0.000329
     14          7           0        0.290819    4.995682   -0.000267
     15          6           0       -0.603417    5.918350    0.000013
     16          6           0       -0.263595    7.339399   -0.000013
     17          1           0       -1.663251    5.647293    0.000818
     18          6           0       -1.299403    8.285566    0.000735
     19          6           0       -1.015578    9.648713    0.000727
     20          1           0       -2.330691    7.947686    0.001319
     21          6           0        0.308675   10.082569   -0.000023
     22          1           0       -1.824949   10.369813    0.001307
     23          6           0        1.348390    9.147495   -0.000765
     24          1           0        0.532829   11.143353   -0.000032
     25          6           0        1.068898    7.787899   -0.000754
     26          1           0        2.378608    9.485468   -0.001350
     27          1           0        1.866558    7.055643   -0.001340
     28          6           0       -0.636228   -2.796527    0.000080
     29          7           0        0.256910   -3.720566    0.000226
     30          1           0       -1.696624   -3.064504   -0.000329
     31          7           0       -0.290819   -4.995682   -0.000267
     32          6           0        0.603417   -5.918350    0.000013
     33          6           0        0.263595   -7.339399   -0.000013
     34          1           0        1.663251   -5.647293    0.000818
     35          6           0        1.299403   -8.285566    0.000735
     36          6           0        1.015578   -9.648713    0.000727
     37          1           0        2.330691   -7.947686    0.001319
     38          6           0       -0.308675  -10.082569   -0.000023
     39          1           0        1.824949  -10.369813    0.001307
     40          6           0       -1.348390   -9.147495   -0.000765
     41          1           0       -0.532829  -11.143353   -0.000032
     42          6           0       -1.068898   -7.787899   -0.000754
     43          1           0       -2.378608   -9.485468   -0.001350
     44          1           0       -1.866558   -7.055643   -0.001340
 ---------------------------------------------------------------------

 SCF Done:  E(RB3LYP) =  -1068.41970481     a.u. after    6 cycles
 SCF Done:  E(RB3LYP) =  -1068.41973177     A.U. after   10 cycles

 The electronic state is 1-A.
 Alpha  occ. eigenvalues --  -14.34207 -14.34207 -14.34077 -14.34077 -10.22067
 Alpha  occ. eigenvalues --  -10.22067 -10.22065 -10.22064 -10.20062 -10.20061
 Alpha  occ. eigenvalues --  -10.19678 -10.19678 -10.19203 -10.19201 -10.19081
 Alpha  occ. eigenvalues --  -10.19081 -10.18952 -10.18952 -10.18803 -10.18802
 Alpha  occ. eigenvalues --  -10.18759 -10.18759 -10.18659 -10.18659 -10.18544
 Alpha  occ. eigenvalues --  -10.18544  -1.00518  -1.00509  -0.89098  -0.88249
 Alpha  occ. eigenvalues --   -0.87444  -0.85780  -0.84459  -0.78829  -0.77032
 Alpha  occ. eigenvalues --   -0.76640  -0.76220  -0.76106  -0.75527  -0.68798
 Alpha  occ. eigenvalues --   -0.65690  -0.64372  -0.62714  -0.62393  -0.61924
 Alpha  occ. eigenvalues --   -0.59809  -0.58219  -0.56786  -0.56035  -0.53140
 Alpha  occ. eigenvalues --   -0.52849  -0.52332  -0.51516  -0.50540  -0.48748
 Alpha  occ. eigenvalues --   -0.47034  -0.46693  -0.45894  -0.45405  -0.45040
 Alpha  occ. eigenvalues --   -0.44665  -0.43755  -0.43583  -0.43505  -0.43491
 Alpha  occ. eigenvalues --   -0.42555  -0.42125  -0.41866  -0.39655  -0.38549
 Alpha  occ. eigenvalues --   -0.38372  -0.37572  -0.36800  -0.36373  -0.36313
 Alpha  occ. eigenvalues --   -0.35936  -0.35695  -0.34307  -0.34074  -0.33218
 Alpha  occ. eigenvalues --   -0.30750  -0.27846  -0.27234  -0.26949  -0.26928
 Alpha  occ. eigenvalues --   -0.24865  -0.24850  -0.24763  -0.22449
 Alpha virt. eigenvalues --   -0.09963  -0.06955  -0.04508  -0.02553  -0.02547
 Alpha virt. eigenvalues --   -0.02419  -0.00784  -0.00765  -0.00730   0.00023
 Alpha virt. eigenvalues --    0.00104   0.00529   0.01072   0.01470   0.01936

 Mulliken charges:
               1
     1  C    0.606201
     2  C    0.606201
     3  C   -0.330345
     4  C   -0.330345
     5  C   -0.743739
     6  C   -0.743739
     7  H    0.162932
     8  H    0.162932
     9  H    0.173697
    10  H    0.173697
    11  C   -0.145642
    12  N    0.111309
    13  H    0.186255
    14  N    0.040166
    15  C   -0.432785
    16  C    0.902551
    17  H    0.186465
    18  C   -0.642182
    19  C   -0.359279
    20  H    0.150751
    21  C   -0.302397
    22  H    0.170830
    23  C   -0.437034
    24  H    0.156731
    25  C    0.186673
    26  H    0.184012
    27  H    0.174829
    28  C   -0.145642
    29  N    0.111309
    30  H    0.186255
    31  N    0.040166
    32  C   -0.432785
    33  C    0.902551
    34  H    0.186465
    35  C   -0.642182
    36  C   -0.359279
    37  H    0.150751
    38  C   -0.302397
    39  H    0.170830
    40  C   -0.437034
    41  H    0.156731
    42  C    0.186673
    43  H    0.184012
    44  H    0.174829
 Sum of Mulliken charges =  -0.00000

 Dipole moment (field-independent basis, Debye):
    X=             -0.0000    Y=             -0.0000    Z=              0.0006  Tot=              0.0006
 Quadrupole moment (field-independent basis, Debye-Ang):
   XX=           -135.9524   YY=           -103.3957   ZZ=           -162.0127
   XY=             -4.7043   XZ=              0.0000   YZ=             -0.0000

  Exact polarizability:     274.442     -24.093     888.673       0.000       0.000     146.134
 Approx polarizability:     493.427     -67.431    1038.141      -0.000       0.000     231.161

                      1                      2                      3
                      A                      B                      A
 Frequencies --     11.6745                21.3925                22.6317
 Red. masses --      6.2365                 6.0762                 3.7254
 Frc consts  --      0.0005                 0.0016                 0.0011
 IR Inten    --      0.3174                 0.3691                 0.0366

                      4                      5                      6
                      B                      B                      A
 Frequencies --     31.7285                42.1516                52.0871
 Red. masses --      4.5554                 5.1117                 5.7018
 Frc consts  --      0.0027                 0.0054                 0.0091
 IR Inten    --      0.0000                 0.0000                 0.0000

                      7                      8                      9
                      A                      B                      A
 Frequencies --     61.7464                93.0401               108.7991
 Red. masses --      5.6871                 4.1474                 6.5324
 Frc consts  --      0.0128                 0.0212                 0.0456
 IR Inten    --      2.6846                 0.0000                 0.0000

                     10                     11                     12
                      B                      A                      B
 Frequencies --    113.4456               121.2446               149.5773
 Red. masses --      5.4923                 5.6205                 4.8714
 Frc consts  --      0.0416                 0.0487                 0.0642
 IR Inten    --      0.6096                 9.9008                 0.0000

                     13                     14                     15
                      A                      A                      B
 Frequencies --    182.0411               213.5178               213.9616
 Red. masses --      2.9120                 5.4564                 3.4787
 Frc consts  --      0.0569                 0.1466                 0.0938
 IR Inten    --      1.6780                 0.0000                 0.0000

                     16                     17                     18
                      B                      A                      B
 Frequencies --    257.4623               273.5061               307.0301
 Red. masses --      7.4000                 3.1326                 5.5553
 Frc consts  --      0.2890                 0.1381                 0.3085
 IR Inten    --      6.8398                22.5209                 1.6567

                     19                     20                     21
                      B                      A                      A
 Frequencies --    318.6701               337.2037               340.5916
 Red. masses --      3.7438                 5.8975                 5.9887
 Frc consts  --      0.2240                 0.3951                 0.4093
 IR Inten    --      0.0000                 0.0001                 1.0932

                     22                     23                     24
                      A                      B                      A
 Frequencies --    412.2082               412.2560               414.2919
 Red. masses --      2.8870                 2.8896                 2.9364
 Frc consts  --      0.2890                 0.2893                 0.2969
 IR Inten    --      0.1557                 0.0000                 0.1476

                     25                     26                     27
                      B                      A                      B
 Frequencies --    429.0089               433.1683               498.8073
 Red. masses --      4.4026                 6.5781                 7.8764
 Frc consts  --      0.4774                 0.7272                 1.1546
 IR Inten    --      0.0000                 0.0000                 4.6396

                     28                     29                     30
                      A                      B                      B
 Frequencies --    515.5115               526.1297               539.9092
 Red. masses --      2.8257                 3.2963                 6.3412
 Frc consts  --      0.4424                 0.5376                 1.0891
 IR Inten    --     53.7159                 0.0000                 4.8229

                     31                     32                     33
                      A                      A                      A
 Frequencies --    545.5984               558.5567               630.9983
 Red. masses --      5.6170                 2.7734                 6.4435
 Frc consts  --      0.9851                 0.5098                 1.5116
 IR Inten    --      0.0000                 7.7810                 0.0000

                     34                     35                     36
                      B                      A                      A
 Frequencies --    632.4789               642.3449               657.1330
 Red. masses --      6.4995                 6.5634                 6.5330
 Frc consts  --      1.5319                 1.5956                 1.6621
 IR Inten    --      0.0418                 0.0000                 0.0000

                     37                     38                     39
                      B                      B                      A
 Frequencies --    673.0952               702.4942               702.6479
 Red. masses --      6.6340                 1.7760                 1.7639
 Frc consts  --      1.7708                 0.5164                 0.5131
 IR Inten    --     33.8287                 0.0000                83.0935

                     40                     41                     42
                      A                      B                      A
 Frequencies --    709.5118               743.0927               774.8644
 Red. masses --      6.6194                 3.7923                 1.7905
 Frc consts  --      1.9633                 1.2338                 0.6334
 IR Inten    --      0.0000                 0.0001                69.0780

                     43                     44                     45
                      B                      B                      A
 Frequencies --    775.7882               853.4863               853.9503
 Red. masses --      1.8423                 1.2545                 1.4832
 Frc consts  --      0.6533                 0.5384                 0.6373
 IR Inten    --      0.0000                 0.0000                25.5462

                     46                     47                     48
                      B                      A                      B
 Frequencies --    856.9661               857.0096               859.0826
 Red. masses --      1.2506                 1.2544                 4.1969
 Frc consts  --      0.5411                 0.5428                 1.8249
 IR Inten    --      0.0000                 0.7951                54.5728

                     49                     50                     51
                      A                      B                      A
 Frequencies --    879.2215               890.8276               901.3888
 Red. masses --      4.3884                 3.9369                 4.6005
 Frc consts  --      1.9987                 1.8407                 2.2023
 IR Inten    --      0.0000                 2.3748                 0.0000

                     52                     53                     54
                      B                      A                      B
 Frequencies --    934.8393               934.9963               974.4796
 Red. masses --      1.3610                 1.3637                 1.3228
 Frc consts  --      0.7008                 0.7024                 0.7401
 IR Inten    --      0.0000                 0.2511                 0.0001

                     55                     56                     57
                      A                      B                      A
 Frequencies --    990.8365               990.8658               993.2378
 Red. masses --      1.3742                 1.3681                 1.5063
 Frc consts  --      0.7949                 0.7914                 0.8756
 IR Inten    --      3.5468                 0.0000                39.1560

                     58                     59                     60
                      A                      B                      A
 Frequencies --    995.9409               997.6222              1004.0071
 Red. masses --      1.3687                 1.4461                 1.3921
 Frc consts  --      0.7999                 0.8480                 0.8268
 IR Inten    --      1.2990                 0.0001                 2.9174

                     61                     62                     63
                      B                      A                      B
 Frequencies --   1006.0890              1013.3406              1014.1736
 Red. masses --      1.3912                 1.4807                 1.4921
 Frc consts  --      0.8297                 0.8959                 0.9042
 IR Inten    --      0.0001                 3.3691                 0.0019

                     64                     65                     66
                      A                      B                      B
 Frequencies --   1014.2151              1014.2253              1032.6397
 Red. masses --      6.2758                 6.2598                 2.6744
 Frc consts  --      3.8035                 3.7939                 1.6803
 IR Inten    --      0.0000                 1.8745                 4.4606

                     67                     68                     69
                      B                      A                      B
 Frequencies --   1047.3313              1047.5800              1051.4258
 Red. masses --      2.3323                 2.1970                 5.4428
 Frc consts  --      1.5073                 1.4206                 3.5451
 IR Inten    --     10.0754                 0.0000                 4.7028

                     70                     71                     72
                      A                      A                      B
 Frequencies --   1054.0391              1109.5120              1109.5303
 Red. masses --      5.9932                 1.6181                 1.6157
 Frc consts  --      3.9230                 1.1736                 1.1719
 IR Inten    --      0.0000                 0.0000                10.7374

                     73                     74                     75
                      B                      A                      B
 Frequencies --   1146.6046              1191.8164              1191.8177
 Red. masses --      1.3879                 1.1248                 1.1248
 Frc consts  --      1.0750                 0.9414                 0.9413
 IR Inten    --      4.5387                 0.0000                 1.7367

                     76                     77                     78
                      A                      B                      A
 Frequencies --   1200.9262              1204.9141              1205.0771
 Red. masses --      1.2240                 1.1542                 1.1538
 Frc consts  --      1.0400                 0.9873                 0.9872
 IR Inten    --      0.0000                39.5529                 0.0000

                     79                     80                     81
                      B                      A                      B
 Frequencies --   1237.6690              1241.1070              1248.9996
 Red. masses --      2.0248                 2.2966                 2.0413
 Frc consts  --      1.8274                 2.0843                 1.8762
 IR Inten    --     66.5900                 0.0000                 0.0409

                     82                     83                     84
                      A                      A                      B
 Frequencies --   1255.4933              1327.2393              1327.5924
 Red. masses --      2.3514                 2.2830                 3.0528
 Frc consts  --      2.1838                 2.3695                 3.1702
 IR Inten    --      0.0000                 0.0000                52.1640

                     85                     86                     87
                      B                      A                      A
 Frequencies --   1336.5112              1336.6402              1354.5273
 Red. masses --      5.6683                 1.8532                 1.9670
 Frc consts  --      5.9655                 1.9507                 2.1263
 IR Inten    --     11.2789                 0.0000                 0.0000

                     88                     89                     90
                      B                      A                      B
 Frequencies --   1354.6651              1363.2244              1364.3662
 Red. masses --      2.0395                 1.3097                 1.5225
 Frc consts  --      2.2051                 1.4340                 1.6698
 IR Inten    --     11.5643                 0.0000                30.6800

                     91                     92                     93
                      B                      A                      B
 Frequencies --   1406.1631              1407.6052              1442.8689
 Red. masses --      1.7537                 1.7686                 2.7677
 Frc consts  --      2.0431                 2.0647                 3.3949
 IR Inten    --      5.7824                 0.0000                21.6493

                     94                     95                     96
                      A                      B                      A
 Frequencies --   1475.9366              1476.1579              1524.4847
 Red. masses --      2.2480                 2.2376                 2.2742
 Frc consts  --      2.8853                 2.8727                 3.1140
 IR Inten    --      0.0000                30.8565                 0.0000

                     97                     98                     99
                      B                      B                      A
 Frequencies --   1524.6283              1541.9352              1564.3260
 Red. masses --      2.2640                 2.5734                 6.6017
 Frc consts  --      3.1006                 3.6048                 9.5184
 IR Inten    --      8.0144                 1.7784                 0.0000

                    100                    101                    102
                      B                      A                      A
 Frequencies --   1595.2756              1601.8930              1619.0150
 Red. masses --      6.2760                 5.8771                 5.5514
 Frc consts  --      9.4104                 8.8854                 8.5735
 IR Inten    --     33.7392                 0.0000                 0.0000

                    103                    104                    105
                      B                      A                      B
 Frequencies --   1620.3509              1642.0422              1643.6732
 Red. masses --      5.8179                 5.4358                 5.6559
 Frc consts  --      8.9998                 8.6355                 9.0029
 IR Inten    --      5.3412                 0.0000                 3.6209

                    106                    107                    108
                      A                      B                      A
 Frequencies --   1654.1391              1681.1625              1682.7303
 Red. masses --      6.1566                 7.6497                 7.6181
 Frc consts  --      9.9251                12.7384                12.7094
 IR Inten    --      0.0000               663.0867                 0.0000

                    109                    110                    111
                      A                      B                      B
 Frequencies --   3063.4612              3063.4711              3067.3124
 Red. masses --      1.0872                 1.0872                 1.0878
 Frc consts  --      6.0118                 6.0117                 6.0300
 IR Inten    --      0.0000                79.4537                15.4781

                    112                    113                    114
                      A                      A                      B
 Frequencies --   3067.5980              3157.5166              3157.5168
 Red. masses --      1.0880                 1.0867                 1.0867
 Frc consts  --      6.0323                 6.3833                 6.3833
 IR Inten    --      0.0000                 0.0000                 8.6988

                    115                    116                    117
                      B                      A                      B
 Frequencies --   3161.5375              3163.2517              3165.0296
 Red. masses --      1.0896                 1.0896                 1.0882
 Frc consts  --      6.4165                 6.4235                 6.4225
 IR Inten    --     20.5877                 0.0000                 0.0802

                    118                    119                    120
                      A                      A                      B
 Frequencies --   3165.0381              3176.1257              3176.1280
 Red. masses --      1.0882                 1.0919                 1.0919
 Frc consts  --      6.4226                 6.4898                 6.4898
 IR Inten    --      0.0000                 0.0000                36.6025

                    121                    122                    123
                      B                      A                      B
 Frequencies --   3187.7653              3187.7932              3199.0536
 Red. masses --      1.0964                 1.0964                 1.0944
 Frc consts  --      6.5645                 6.5645                 6.5988
 IR Inten    --     58.2721                 0.0000                16.3497

                    124                    125                    126
                      A                      B                      A
 Frequencies --   3199.0633              3199.5608              3200.5918
 Red. masses --      1.0944                 1.0928                 1.0933
 Frc consts  --      6.5989                 6.5913                 6.5984
 IR Inten    --      0.0000                 3.2818                 0.0000

 - Thermochemistry -
 -------------------
 Temperature   298.150 Kelvin.  Pressure   1.00000 Atm.
 Atom     1 has atomic number  6 and mass  12.00000

 Molecular mass:   338.15315 amu.
 Principal axes and moments of inertia in atomic units:
                           1         2         3
     Eigenvalues --  1068.10949********************
           X           -0.00010   1.00000   0.00000
           Y            1.00000   0.00010   0.00000
           Z            0.00000   0.00000   1.00000
 This molecule is an asymmetric top.
 Rotational symmetry number  2.
 Warning -- assumption of classical behavior for rotation
           may cause significant error
 Rotational temperatures (Kelvin)      0.08109     0.00170     0.00167
 Rotational constants (GHZ):           1.68966     0.03551     0.03478
 Zero-point vibrational energy     910583.4 (Joules/Mol)
                                  217.63465 (Kcal/Mol)
 Warning -- explicit consideration of  32 degrees of freedom as
           vibrations may cause significant error
 Vibrational temperatures:     16.80    30.78    32.56    45.65    60.65
          (Kelvin)             74.94    88.84   133.86   156.54   163.22
                              174.44   215.21   261.92   307.20   307.84
                              370.43   393.51   441.75   458.50   485.16
                              490.04   593.08   593.14   596.07   617.25
                              623.23   717.67   741.71   756.98   776.81
                              784.99   803.64   907.87   910.00   924.19
                              945.47   968.43  1010.73  1010.95  1020.83
                             1069.14  1114.86  1116.19  1227.98  1228.64
                             1232.98  1233.05  1236.03  1265.00  1281.70
                             1296.90  1345.03  1345.25  1402.06  1425.59
                             1425.63  1429.05  1432.94  1435.36  1444.54
                             1447.54  1457.97  1459.17  1459.23  1459.24
                             1485.74  1506.88  1507.23  1512.77  1516.53
                             1596.34  1596.37  1649.71  1714.76  1714.76
                             1727.86  1733.60  1733.84  1780.73  1785.68
                             1797.03  1806.37  1909.60  1910.11  1922.94
                             1923.13  1948.86  1949.06  1961.38  1963.02
                             2023.16  2025.23  2075.97  2123.54  2123.86
                             2193.39  2193.60  2218.50  2250.72  2295.25
                             2304.77  2329.40  2331.32  2362.53  2364.88
                             2379.94  2418.82  2421.07  4407.64  4407.65
                             4413.18  4413.59  4542.96  4542.96  4548.75
                             4551.21  4553.77  4553.78  4569.74  4569.74
                             4586.48  4586.52  4602.72  4602.74  4603.45
                             4604.94

 Zero-point correction=                           0.346823 (Hartree/Particle)
 Thermal correction to Energy=                    0.368879
 Thermal correction to Enthalpy=                  0.369823
 Thermal correction to Gibbs Free Energy=         0.291524
 Sum of electronic and zero-point Energies=          -1068.072909
 Sum of electronic and thermal Energies=             -1068.050853
 Sum of electronic and thermal Enthalpies=           -1068.049909
 Sum of electronic and thermal Free Energies=        -1068.128208

                     E (Thermal)             CV                S
                      KCal/Mol        Cal/Mol-Kelvin    Cal/Mol-Kelvin
 Total                  231.475             84.564            164.795
 Electronic               0.000              0.000              0.000
 Translational            0.889              2.981             43.350
 Rotational               0.889              2.981             34.908
 Vibrational            229.698             78.602             86.537
 Vibration     1          0.593              1.987              7.703
 Vibration     2          0.593              1.985              6.501
 Vibration     3          0.593              1.985              6.389
 Vibration     4          0.594              1.983              5.718
 Vibration     5          0.595              1.980              5.155
 Vibration     6          0.596              1.977              4.737
 Vibration     7          0.597              1.973              4.401
 Vibration     8          0.602              1.954              3.595
 Vibration     9          0.606              1.942              3.290
 Vibration    10          0.607              1.938              3.209
 Vibration    11          0.609              1.931              3.080
 Vibration    12          0.618              1.903              2.678
 Vibration    13          0.630              1.864              2.307
 Vibration    14          0.644              1.820              2.013
 Vibration    15          0.644              1.820              2.010
 Vibration    16          0.667              1.750              1.679
 Vibration    17          0.676              1.722              1.574
 Vibration    18          0.697              1.660              1.378
 Vibration    19          0.705              1.638              1.317
 Vibration    20          0.718              1.601              1.225
 Vibration    21          0.720              1.594              1.209
 Vibration    22          0.776              1.444              0.919
 Vibration    23          0.776              1.444              0.919
 Vibration    24          0.778              1.439              0.912
 Vibration    25          0.790              1.407              0.862
 Vibration    26          0.794              1.398              0.848
 Vibration    27          0.854              1.253              0.661
 Vibration    28          0.871              1.216              0.620
 Vibration    29          0.881              1.192              0.596
 Vibration    30          0.895              1.162              0.565
 Vibration    31          0.901              1.149              0.553
 Vibration    32          0.914              1.121              0.527

 Normal termination of Gaussian 16 at Sun Aug  2 08:20:38 2020.
