 Gaussian 16, Revision C.01,
 Gaussian 16:  ES64L-G16RevC.01  3-Jul-2019

 ----------------------------------------------------------------------
 #P B3LYP/6-311++G(d,p) EmpiricalDispersion=GD3 freq(noraman) SCF=YQC N
 oSymm
 ----------------------------------------------------------------------

 ---------------------------------------------------
 Restart from Pyrene_H_CarboxylicAnhydride_Imide.log
 ---------------------------------------------------
 Symbolic Z-matrix:
 Charge =  0 Multiplicity = 1

                          Input orientation:
 ---------------------------------------------------------------------
 Center     Atomic      Atomic             Coordinates (Angstroms)
 Number     Number       Type             X           Y           Z
 ---------------------------------------------------------------------
      1          6           0        0.001313    3.517139   -0.395860
      2          6           0       -1.209293    2.836599   -0.323768
      3          6           0       -1.230414    1.442196   -0.166933
      4          6           0        0.000265    0.712917   -0.079932
      5          6           0        1.231489    1.442377   -0.157167
      6          6           0        1.211408    2.836778   -0.314163
      7          1           0       -2.148416    3.369147   -0.388733
      8          1           0        2.150937    3.369465   -0.371673
      9          6           0       -0.000265   -0.712917    0.079932
     10          6           0       -1.231489   -1.442377    0.157167
     11          6           0       -1.211408   -2.836778    0.314163
     12          6           0       -0.001313   -3.517138    0.395860
     13          6           0        1.209293   -2.836599    0.323768
     14          6           0        1.230414   -1.442196    0.166933
     15          1           0       -2.150937   -3.369465    0.371673
     16          1           0        2.148416   -3.369146    0.388733
     17          6           0        2.433519    0.677879   -0.064252
     18          6           0        2.433032   -0.677523    0.083556
     19          6           0       -2.433032    0.677523   -0.083556
     20          6           0       -2.433519   -0.677879    0.064252
     21          1           0        0.001718    4.593973   -0.518119
     22          1           0       -0.001718   -4.593972    0.518119
     23          6           0        3.849974    1.154314   -0.111373
     24          6           0        3.849140   -1.153755    0.141870
     25          7           0        4.651893    0.000341    0.018439
     26          8           0        4.260934   -2.282448    0.266652
     27          8           0        4.262578    2.283073   -0.232838
     28          6           0        6.078453    0.000458    0.024189
     29          6           0        6.774434   -0.935515   -0.742420
     30          1           0        6.230136   -1.662164   -1.330041
     31          6           0        8.166453   -0.935517   -0.727191
     32          1           0        8.705830   -1.667205   -1.317473
     33          6           0        8.862997    0.000678    0.035438
     34          1           0        9.946873    0.000761    0.039816
     35          6           0        8.160169    0.936765    0.792410
     36          1           0        8.694644    1.668537    1.387030
     37          6           0        6.768072    0.936544    0.796390
     38          1           0        6.218933    1.663111    1.379591
     39          6           0       -3.849974   -1.154313    0.111372
     40          6           0       -3.849140    1.153755   -0.141870
     41          7           0       -4.651893   -0.000341   -0.018439
     42          8           0       -4.260934    2.282448   -0.266652
     43          8           0       -4.262578   -2.283073    0.232837
     44          6           0       -6.078453   -0.000458   -0.024189
     45          6           0       -6.774434    0.935515    0.742420
     46          1           0       -6.230137    1.662164    1.330041
     47          6           0       -8.166453    0.935516    0.727191
     48          1           0       -8.705831    1.667204    1.317473
     49          6           0       -8.862997   -0.000678   -0.035438
     50          1           0       -9.946873   -0.000762   -0.039816
     51          6           0       -8.160169   -0.936765   -0.792410
     52          1           0       -8.694644   -1.668537   -1.387030
     53          6           0       -6.768072   -0.936544   -0.796390
     54          1           0       -6.218933   -1.663111   -1.379591
 ---------------------------------------------------------------------

 SCF Done:  E(RB3LYP) =  -1640.02525761     a.u. after    9 cycles
 SCF Done:  E(RB3LYP) =  -1640.02526547     A.U. after    9 cycles

 Alpha  occ. eigenvalues --  -19.14006 -19.14006 -19.14005 -19.14005 -14.38454
 Alpha  occ. eigenvalues --  -14.38454 -10.31723 -10.31723 -10.31723 -10.31723
 Alpha  occ. eigenvalues --  -10.23401 -10.23401 -10.22758 -10.22717 -10.22526
 Alpha  occ. eigenvalues --  -10.22526 -10.22459 -10.22459 -10.22359 -10.22357
 Alpha  occ. eigenvalues --  -10.22356 -10.22354 -10.20392 -10.20391 -10.20376
 Alpha  occ. eigenvalues --  -10.20376 -10.20275 -10.20275 -10.18878 -10.18878
 Alpha  occ. eigenvalues --  -10.18878 -10.18878 -10.18709 -10.18709 -10.18699
 Alpha  occ. eigenvalues --  -10.18699 -10.18555 -10.18555  -1.09821  -1.09819
 Alpha  occ. eigenvalues --   -1.08086  -1.08085  -0.98759  -0.98732  -0.93335
 Alpha  occ. eigenvalues --   -0.89411  -0.88604  -0.87674  -0.86300  -0.83978
 Alpha  occ. eigenvalues --   -0.81252  -0.80594  -0.78827  -0.76898  -0.76398
 Alpha  occ. eigenvalues --   -0.76398  -0.75583  -0.74258  -0.69867  -0.69495
 Alpha  occ. eigenvalues --   -0.68606  -0.67265  -0.65200  -0.65022  -0.64937
 Alpha  occ. eigenvalues --   -0.62285  -0.62017  -0.61891  -0.58814  -0.58122
 Alpha  occ. eigenvalues --   -0.57733  -0.56613  -0.55323  -0.54738  -0.53285
 Alpha  occ. eigenvalues --   -0.52160  -0.51205  -0.50891  -0.50262  -0.50087
 Alpha  occ. eigenvalues --   -0.49661  -0.49472  -0.48260  -0.47734  -0.47052
 Alpha  occ. eigenvalues --   -0.47040  -0.46785  -0.46525  -0.45998  -0.45926
 Alpha  occ. eigenvalues --   -0.45145  -0.45055  -0.44783  -0.44552  -0.44135
 Alpha  occ. eigenvalues --   -0.43817  -0.43659  -0.43356  -0.42521  -0.42314
 Alpha  occ. eigenvalues --   -0.40232  -0.39598  -0.39363  -0.39118  -0.38703
 Alpha  occ. eigenvalues --   -0.38175  -0.38061  -0.37881  -0.37254  -0.37206
 Alpha  occ. eigenvalues --   -0.36646  -0.36613  -0.33298  -0.32130  -0.32073
 Alpha  occ. eigenvalues --   -0.31392  -0.31356  -0.31046  -0.30085  -0.29228
 Alpha  occ. eigenvalues --   -0.28583  -0.26911  -0.26784  -0.26783  -0.26206
 Alpha  occ. eigenvalues --   -0.25411  -0.23449
 Alpha virt. eigenvalues --   -0.12600  -0.10959  -0.07151  -0.04670  -0.04141
 Alpha virt. eigenvalues --   -0.03036  -0.02526  -0.02505  -0.02006  -0.01243
 Alpha virt. eigenvalues --   -0.00723  -0.00663  -0.00272  -0.00099   0.00806

 Mulliken charges:
               1
     1  C   -1.116173
     2  C   -0.442691
     3  C    0.487889
     4  C   -0.153049
     5  C    0.487904
     6  C   -0.442696
     7  H    0.163984
     8  H    0.163984
     9  C   -0.153049
    10  C    0.487903
    11  C   -0.442695
    12  C   -1.116174
    13  C   -0.442691
    14  C    0.487890
    15  H    0.163985
    16  H    0.163984
    17  C    0.389991
    18  C    0.390076
    19  C    0.390076
    20  C    0.389991
    21  H    0.205912
    22  H    0.205912
    23  C   -0.175280
    24  C   -0.175314
    25  N    0.447532
    26  O   -0.233801
    27  O   -0.233795
    28  C   -0.671185
    29  C    0.260498
    30  H    0.200140
    31  C   -0.100941
    32  H    0.180929
    33  C   -0.335373
    34  H    0.160734
    35  C   -0.101097
    36  H    0.180927
    37  C    0.260755
    38  H    0.200139
    39  C   -0.175280
    40  C   -0.175314
    41  N    0.447533
    42  O   -0.233801
    43  O   -0.233796
    44  C   -0.671185
    45  C    0.260498
    46  H    0.200139
    47  C   -0.100941
    48  H    0.180929
    49  C   -0.335372
    50  H    0.160734
    51  C   -0.101097
    52  H    0.180927
    53  C    0.260755
    54  H    0.200139
 Sum of Mulliken charges =  -0.00000

 Dipole moment (field-independent basis, Debye):
    X=             -0.0000    Y=              0.0000    Z=             -0.0000  Tot=              0.0000
 Quadrupole moment (field-independent basis, Debye-Ang):
   XX=           -200.7836   YY=           -216.6183   ZZ=           -215.6261
   XY=             -0.0359   XZ=              0.0597   YZ=              9.1873

  Exact polarizability:     649.973      -0.003     446.936       1.766       3.989     207.060
 Approx polarizability:     832.522      -0.011     994.570       1.872      -1.561     362.934

                      1                      2                      3
                      A                      A                      A
 Frequencies --     15.0680                34.6304                37.1989
 Red. masses --      6.3242                 7.1413                 4.4006
 Frc consts  --      0.0008                 0.0050                 0.0036
 IR Inten    --      0.0175                 0.0000                 0.3690

                      4                      5                      6
                      A                      A                      A
 Frequencies --     46.5497                49.6976                63.7336
 Red. masses --      3.8878                 5.8862                 6.9088
 Frc consts  --      0.0050                 0.0086                 0.0165
 IR Inten    --      0.0000                 0.4992                 4.0728

                      7                      8                      9
                      A                      A                      A
 Frequencies --     68.7698                75.0765                85.5536
 Red. masses --      8.3479                 5.8832                 9.3952
 Frc consts  --      0.0233                 0.0195                 0.0405
 IR Inten    --      1.3723                 0.0000                 0.0000

                     10                     11                     12
                      A                      A                      A
 Frequencies --    117.9107               127.7368               140.2270
 Red. masses --      5.9312                 6.7197                 9.0531
 Frc consts  --      0.0486                 0.0646                 0.1049
 IR Inten    --      0.0695                 0.0000                 5.2871

                     13                     14                     15
                      A                      A                      A
 Frequencies --    148.0455               170.1547               171.9075
 Red. masses --      8.9155                 7.8500                 7.2811
 Frc consts  --      0.1151                 0.1339                 0.1268
 IR Inten    --      0.0000                 0.0000                 4.3633

                     16                     17                     18
                      A                      A                      A
 Frequencies --    185.3179               212.0426               252.4981
 Red. masses --      4.6221                 5.9552                 6.6920
 Frc consts  --      0.0935                 0.1578                 0.2514
 IR Inten    --      0.0742                 0.0000                 4.6313

                     19                     20                     21
                      A                      A                      A
 Frequencies --    270.5321               274.2646               286.4421
 Red. masses --      5.5155                 6.1787                 5.8183
 Frc consts  --      0.2378                 0.2738                 0.2813
 IR Inten    --      0.0000                 2.8596                 0.0000

                     22                     23                     24
                      A                      A                      A
 Frequencies --    290.3126               310.6870               317.9709
 Red. masses --      6.3121                 8.3331                11.5870
 Frc consts  --      0.3134                 0.4739                 0.6902
 IR Inten    --      0.0000                 6.4169                 0.0000

                     25                     26                     27
                      A                      A                      A
 Frequencies --    339.1011               344.3225               366.9073
 Red. masses --      8.2683                 8.4481                10.1184
 Frc consts  --      0.5602                 0.5901                 0.8026
 IR Inten    --      0.0000                31.7426                 0.2059

                     28                     29                     30
                      A                      A                      A
 Frequencies --    399.0360               404.9156               406.2046
 Red. masses --      6.6428                 6.4095                 7.0707
 Frc consts  --      0.6232                 0.6192                 0.6874
 IR Inten    --      0.0000                 0.0229                 0.1602

                     31                     32                     33
                      A                      A                      A
 Frequencies --    416.3388               416.3414               438.1959
 Red. masses --      2.9043                 2.9044                 6.7578
 Frc consts  --      0.2966                 0.2966                 0.7645
 IR Inten    --      1.4390                 0.0005                 0.0232

                     34                     35                     36
                      A                      A                      A
 Frequencies --    441.2404               490.8861               511.2408
 Red. masses --      8.3168                 3.8176                 3.5431
 Frc consts  --      0.9540                 0.5420                 0.5456
 IR Inten    --      0.0000                 2.0342                 0.0000

                     37                     38                     39
                      A                      A                      A
 Frequencies --    515.7382               526.2503               542.2464
 Red. masses --      3.3047                 7.7932                 9.2542
 Frc consts  --      0.5179                 1.2716                 1.6032
 IR Inten    --     16.1932                 0.0000                52.8421

                     40                     41                     42
                      A                      A                      A
 Frequencies --    543.4844               555.6941               561.1473
 Red. masses --      5.7975                 9.7976                 4.2992
 Frc consts  --      1.0089                 1.7826                 0.7976
 IR Inten    --      0.0000                 0.0000                 0.0000

                     43                     44                     45
                      A                      A                      A
 Frequencies --    575.0773               617.7798               630.6385
 Red. masses --      6.3801                 8.0948                 6.5409
 Frc consts  --      1.2432                 1.8202                 1.5327
 IR Inten    --      0.0000                 1.0046                 1.0262

                     46                     47                     48
                      A                      A                      A
 Frequencies --    631.2147               637.8163               638.1408
 Red. masses --      6.4119                10.4801                10.6105
 Frc consts  --      1.5052                 2.5119                 2.5458
 IR Inten    --      0.0000                88.2424                 0.0000

                     49                     50                     51
                      A                      A                      A
 Frequencies --    638.2556               674.2751               692.3703
 Red. masses --      8.1920                 9.1842                 7.4648
 Frc consts  --      1.9662                 2.4602                 2.1084
 IR Inten    --     13.5824                 0.0000                 0.0000

                     52                     53                     54
                      A                      A                      A
 Frequencies --    699.4038               700.3724               705.9739
 Red. masses --      2.0493                 1.9975                 7.9694
 Frc consts  --      0.5906                 0.5773                 2.3402
 IR Inten    --     49.3767                 0.0000                 0.0804

                     55                     56                     57
                      A                      A                      A
 Frequencies --    724.2776               743.4924               748.1391
 Red. masses --      4.6841                 6.9968                 2.7480
 Frc consts  --      1.4477                 2.2788                 0.9062
 IR Inten    --     23.3346                 0.0000                35.1681

                     58                     59                     60
                      A                      A                      A
 Frequencies --    753.9302               762.9164               766.6785
 Red. masses --      3.1267                 2.5874                11.9840
 Frc consts  --      1.0471                 0.8873                 4.1503
 IR Inten    --      0.0000                65.2651                 4.3279

                     61                     62                     63
                      A                      A                      A
 Frequencies --    770.4692               770.9366               805.4192
 Red. masses --      8.9778                 3.0012                 5.8771
 Frc consts  --      3.1400                 1.0509                 2.2463
 IR Inten    --      0.0000                 0.0000                11.5835

                     64                     65                     66
                      A                      A                      A
 Frequencies --    814.8406               818.6512               825.1909
 Red. masses --      6.3160                 1.3206                 1.6395
 Frc consts  --      2.4708                 0.5214                 0.6578
 IR Inten    --      0.0000                 0.0000                99.4411

                     67                     68                     69
                      A                      A                      A
 Frequencies --    836.0871               842.3239               842.6622
 Red. masses --      6.7229                 1.2622                 1.2528
 Frc consts  --      2.7689                 0.5276                 0.5241
 IR Inten    --      0.0000                 0.1207                 0.0000

                     70                     71                     72
                      A                      A                      A
 Frequencies --    844.1312               864.8343               923.1342
 Red. masses --      9.8623                 6.8645                 1.4452
 Frc consts  --      4.1404                 3.0250                 0.7256
 IR Inten    --      4.1660                70.4973                 0.0000

                     73                     74                     75
                      A                      A                      A
 Frequencies --    923.5418               952.0597               957.1031
 Red. masses --      1.4269                 7.4442                 1.3444
 Frc consts  --      0.7170                 3.9756                 0.7256
 IR Inten    --      6.1512                 0.0000                 0.0048

                     76                     77                     78
                      A                      A                      A
 Frequencies --    961.8888               980.9041               980.9729
 Red. masses --      1.3506                 1.3857                 1.3718
 Frc consts  --      0.7362                 0.7855                 0.7778
 IR Inten    --      0.0000                 0.0000                 0.0207

                     79                     80                     81
                      A                      A                      A
 Frequencies --    986.9839              1001.4369              1001.4724
 Red. masses --      8.5863                 1.2907                 1.2906
 Frc consts  --      4.9281                 0.7626                 0.7626
 IR Inten    --      0.0000                 0.3521                 0.0000

                     82                     83                     84
                      A                      A                      A
 Frequencies --   1010.3532              1013.6963              1016.0151
 Red. masses --      7.5165                 1.3166                 1.3181
 Frc consts  --      4.5208                 0.7971                 0.8017
 IR Inten    --      0.1960                 0.8783                 0.0000

                     85                     86                     87
                      A                      A                      A
 Frequencies --   1018.4600              1018.7119              1049.9279
 Red. masses --      6.1922                 6.1927                 2.4423
 Frc consts  --      3.7843                 3.7864                 1.5863
 IR Inten    --      1.8144                 0.0000                 6.3065

                     88                     89                     90
                      A                      A                      A
 Frequencies --   1053.4251              1090.1573              1092.9587
 Red. masses --      2.1331                 3.4649                 3.0311
 Frc consts  --      1.3947                 2.4261                 2.1333
 IR Inten    --      0.0000                32.6144                 0.0000

                     91                     92                     93
                      A                      A                      A
 Frequencies --   1094.3365              1105.9637              1121.5031
 Red. masses --      3.4730                 2.3125                 2.4523
 Frc consts  --      2.4505                 1.6666                 1.8173
 IR Inten    --      4.1871                 0.0000                 1.8904

                     94                     95                     96
                      A                      A                      A
 Frequencies --   1132.3882              1133.2967              1153.5232
 Red. masses --      2.4448                 2.1880                 3.9668
 Frc consts  --      1.8471                 1.6557                 3.1098
 IR Inten    --      0.0000                96.9130                 0.5719

                     97                     98                     99
                      A                      A                      A
 Frequencies --   1187.8023              1193.0568              1193.0641
 Red. masses --      4.0931                 1.1203                 1.1203
 Frc consts  --      3.4025                 0.9395                 0.9395
 IR Inten    --      0.0000                 0.0001                 0.0762

                    100                    101                    102
                      A                      A                      A
 Frequencies --   1193.2822              1206.4729              1213.4493
 Red. masses --      2.9268                 1.2613                 1.2346
 Frc consts  --      2.4555                 1.0817                 1.0711
 IR Inten    --    123.8167                 0.0000                11.2832

                    103                    104                    105
                      A                      A                      A
 Frequencies --   1214.6271              1215.1995              1298.1879
 Red. masses --      1.1786                 1.2775                 1.9648
 Frc consts  --      1.0245                 1.1115                 1.9509
 IR Inten    --      0.0000                15.8192                 0.0000

                    106                    107                    108
                      A                      A                      A
 Frequencies --   1298.2913              1310.4537              1325.7247
 Red. masses --      4.8537                 2.7712                 4.5148
 Frc consts  --      4.8202                 2.8039                 4.6751
 IR Inten    --     43.8262                 0.0000                 2.1720

                    109                    110                    111
                      A                      A                      A
 Frequencies --   1332.5762              1332.6477              1356.5273
 Red. masses --      5.1429                 5.1384                 9.2991
 Frc consts  --      5.3807                 5.3766                10.0820
 IR Inten    --      2.4059                 0.0000                 0.0000

                    112                    113                    114
                      A                      A                      A
 Frequencies --   1361.4990              1361.5011              1377.4956
 Red. masses --      1.3992                 1.3994                 7.6997
 Frc consts  --      1.5282                 1.5283                 8.6081
 IR Inten    --      0.0034                 1.6681                 0.0000

                    115                    116                    117
                      A                      A                      A
 Frequencies --   1387.4453              1394.8065              1415.3615
 Red. masses --      8.0605                 8.6921                 5.0509
 Frc consts  --      9.1421                 9.9633                 5.9615
 IR Inten    --   1804.5140                 0.0000                 0.0000

                    118                    119                    120
                      A                      A                      A
 Frequencies --   1417.4477              1422.0315              1468.8949
 Red. masses --      3.8234                 2.6233                 2.2744
 Frc consts  --      4.5260                 3.1255                 2.8914
 IR Inten    --      0.0000                78.1620                68.9708

                    121                    122                    123
                      A                      A                      A
 Frequencies --   1486.1404              1486.1481              1509.6103
 Red. masses --      2.2669                 2.2675                10.8129
 Frc consts  --      2.9498                 2.9507                14.5186
 IR Inten    --      0.0018                13.3855                18.9265

                    124                    125                    126
                      A                      A                      A
 Frequencies --   1521.1503              1530.8011              1530.9915
 Red. masses --      4.4692                 2.3150                 2.2912
 Frc consts  --      6.0930                 3.1962                 3.1642
 IR Inten    --     24.7281               266.5287                 0.0002

                    127                    128                    129
                      A                      A                      A
 Frequencies --   1535.4232              1594.2526              1616.5973
 Red. masses --      3.5405                 4.3465                 6.9627
 Frc consts  --      4.9178                 6.5088                10.7209
 IR Inten    --      0.0000                 0.0000                 0.0000

                    130                    131                    132
                      A                      A                      A
 Frequencies --   1628.5783              1628.6200              1630.9716
 Red. masses --      5.8426                 5.8492                 5.2534
 Frc consts  --      9.1300                 9.1409                 8.2335
 IR Inten    --      3.8055                 0.0002                 0.2460

                    133                    134                    135
                      A                      A                      A
 Frequencies --   1641.2305              1641.6070              1644.9577
 Red. masses --      5.6191                 5.4252                 8.9230
 Frc consts  --      8.9177                 8.6139                14.2255
 IR Inten    --     54.1218                 0.0000                15.4738

                    136                    137                    138
                      A                      A                      A
 Frequencies --   1666.8333              1762.6513              1765.2014
 Red. masses --     10.3560                12.8708                12.7953
 Frc consts  --     16.9521                23.5606                23.4903
 IR Inten    --      0.0000                 0.0002               965.8478

                    139                    140                    141
                      A                      A                      A
 Frequencies --   1817.6910              1819.6728              3165.7569
 Red. masses --     12.8787                12.8162                 1.0861
 Frc consts  --     25.0706                25.0033                 6.4131
 IR Inten    --    159.6676                 0.0001                 0.2377

                    142                    143                    144
                      A                      A                      A
 Frequencies --   3165.7621              3177.0452              3177.0480
 Red. masses --      1.0861                 1.0902                 1.0902
 Frc consts  --      6.4132                 6.4836                 6.4836
 IR Inten    --      0.0031                 3.9895                17.7515

                    145                    146                    147
                      A                      A                      A
 Frequencies --   3179.2828              3179.4687              3188.8102
 Red. masses --      1.0896                 1.0897                 1.0953
 Frc consts  --      6.4890                 6.4903                 6.5620
 IR Inten    --     24.5195                 0.0000                54.4398

                    148                    149                    150
                      A                      A                      A
 Frequencies --   3188.8373              3209.7332              3209.7356
 Red. masses --      1.0953                 1.0934                 1.0934
 Frc consts  --      6.5620                 6.6368                 6.6368
 IR Inten    --      0.0098                 1.7059                 4.5363

                    151                    152                    153
                      A                      A                      A
 Frequencies --   3210.6095              3210.6117              3213.3494
 Red. masses --      1.0948                 1.0948                 1.0917
 Frc consts  --      6.6492                 6.6492                 6.6413
 IR Inten    --      0.0032                 0.0082                 0.0011

                    154                    155                    156
                      A                      A                      A
 Frequencies --   3213.4923              3215.7907              3215.8334
 Red. masses --      1.0917                 1.0951                 1.0950
 Frc consts  --      6.6422                 6.6724                 6.6719
 IR Inten    --     16.8377                 0.1845                 0.0001

 - Thermochemistry -
 -------------------
 Temperature   298.150 Kelvin.  Pressure   1.00000 Atm.
 Atom     1 has atomic number  6 and mass  12.00000

 Molecular mass:   492.11101 amu.
 Principal axes and moments of inertia in atomic units:
                           1         2         3
     Eigenvalues --  5343.86275********************
           X            0.99999   0.00010  -0.00398
           Y            0.00007   0.99903   0.04404
           Z            0.00398  -0.04404   0.99902
 This molecule is an asymmetric top.
 Rotational symmetry number  1.
 Warning -- assumption of classical behavior for rotation
           may cause significant error
 Rotational temperatures (Kelvin)      0.01621     0.00205     0.00184
 Rotational constants (GHZ):           0.33772     0.04268     0.03837
 Zero-point vibrational energy    1041829.4 (Joules/Mol)
                                  249.00320 (Kcal/Mol)
 Warning -- explicit consideration of  44 degrees of freedom as
           vibrations may cause significant error
 Vibrational temperatures:     21.68    49.83    53.52    66.97    71.50
          (Kelvin)             91.70    98.94   108.02   123.09   169.65
                              183.78   201.76   213.00   244.81   247.34
                              266.63   305.08   363.29   389.24   394.61
                              412.13   417.70   447.01   457.49   487.89
                              495.40   527.90   574.12   582.58   584.44
                              599.02   599.02   630.47   634.85   706.28
                              735.56   742.03   757.16   780.17   781.95
                              799.52   807.37   827.41   888.85   907.35
                              908.18   917.68   918.14   918.31   970.13
                              996.17  1006.29  1007.68  1015.74  1042.07
                             1069.72  1076.41  1084.74  1097.67  1103.08
                             1108.53  1109.21  1158.82  1172.37  1177.86
                             1187.27  1202.94  1211.92  1212.40  1214.52
                             1244.30  1328.18  1328.77  1369.80  1377.06
                             1383.94  1411.30  1411.40  1420.05  1440.84
                             1440.90  1453.67  1458.48  1461.82  1465.34
                             1465.70  1510.61  1515.64  1568.49  1572.52
                             1574.51  1591.24  1613.59  1629.25  1630.56
                             1659.66  1708.98  1716.54  1716.55  1716.87
                             1735.85  1745.88  1747.58  1748.40  1867.80
                             1867.95  1885.45  1907.42  1917.28  1917.38
                             1951.74  1958.89  1958.90  1981.91  1996.22
                             2006.82  2036.39  2039.39  2045.99  2113.41
                             2138.22  2138.24  2171.99  2188.60  2202.48
                             2202.76  2209.13  2293.77  2325.92  2343.16
                             2343.22  2346.60  2361.36  2361.91  2366.73
                             2398.20  2536.06  2539.73  2615.25  2618.10
                             4554.82  4554.83  4571.06  4571.06  4574.28
                             4574.55  4587.99  4588.03  4618.09  4618.09
                             4619.35  4619.35  4623.29  4623.50  4626.81
                             4626.87

 Zero-point correction=                           0.396812 (Hartree/Particle)
 Thermal correction to Energy=                    0.424123
 Thermal correction to Enthalpy=                  0.425067
 Thermal correction to Gibbs Free Energy=         0.338057
 Sum of electronic and zero-point Energies=          -1639.628454
 Sum of electronic and thermal Energies=             -1639.601143
 Sum of electronic and thermal Enthalpies=           -1639.600199
 Sum of electronic and thermal Free Energies=        -1639.687208

                     E (Thermal)             CV                S
                      KCal/Mol        Cal/Mol-Kelvin    Cal/Mol-Kelvin
 Total                  266.141            110.554            183.127
 Electronic               0.000              0.000              0.000
 Translational            0.889              2.981             44.468
 Rotational               0.889              2.981             37.606
 Vibrational            264.363            104.593            101.054
 Vibration     1          0.593              1.986              7.197
 Vibration     2          0.594              1.983              5.545
 Vibration     3          0.594              1.982              5.403
 Vibration     4          0.595              1.979              4.959
 Vibration     5          0.595              1.978              4.829
 Vibration     6          0.597              1.972              4.338
 Vibration     7          0.598              1.969              4.188
 Vibration     8          0.599              1.966              4.016
 Vibration     9          0.601              1.959              3.759
 Vibration    10          0.608              1.934              3.134
 Vibration    11          0.611              1.925              2.980
 Vibration    12          0.615              1.913              2.801
 Vibration    13          0.617              1.905              2.697
 Vibration    14          0.625              1.879              2.434
 Vibration    15          0.626              1.877              2.415
 Vibration    16          0.631              1.860              2.274
 Vibration    17          0.643              1.823              2.026
 Vibration    18          0.664              1.759              1.713
 Vibration    19          0.674              1.727              1.593
 Vibration    20          0.677              1.721              1.569
 Vibration    21          0.684              1.699              1.495
 Vibration    22          0.686              1.692              1.472
 Vibration    23          0.700              1.653              1.359
 Vibration    24          0.704              1.639              1.321
 Vibration    25          0.719              1.597              1.216
 Vibration    26          0.723              1.587              1.192
 Vibration    27          0.740              1.540              1.093
 Vibration    28          0.765              1.472              0.966
 Vibration    29          0.770              1.460              0.945
 Vibration    30          0.771              1.457              0.940
 Vibration    31          0.780              1.435              0.904
 Vibration    32          0.780              1.435              0.904
 Vibration    33          0.798              1.387              0.832
 Vibration    34          0.801              1.380              0.823
 Vibration    35          0.847              1.270              0.681
 Vibration    36          0.866              1.225              0.631
 Vibration    37          0.871              1.215              0.620
 Vibration    38          0.881              1.192              0.596
 Vibration    39          0.897              1.157              0.560
 Vibration    40          0.899              1.154              0.558
 Vibration    41          0.911              1.127              0.532
 Vibration    42          0.917              1.115              0.522
 Vibration    43          0.931              1.085              0.495
 Vibration    44          0.978              0.994              0.420

 Normal termination of Gaussian 16 at Thu Jan 14 00:22:03 2021.
