 Gaussian 16, Revision C.01,
 Gaussian 16:  ES64L-G16RevC.01  3-Jul-2019

 ----------------------------------------------------------------------
 #P B3LYP/6-311++G(d,p) EmpiricalDispersion=GD3 freq(noraman) SCF=YQC N
 oSymm
 ----------------------------------------------------------------------

 ----------------------------------------------
 Restart from 2_Phenyl_AmineBorane_Borazine.log
 ----------------------------------------------
 Symbolic Z-matrix:
 Charge =  0 Multiplicity = 1

                          Input orientation:
 ---------------------------------------------------------------------
 Center     Atomic      Atomic             Coordinates (Angstroms)
 Number     Number       Type             X           Y           Z
 ---------------------------------------------------------------------
      1          6           0        0.004195   -1.408535    0.011219
      2          6           0       -0.004195    1.408535   -0.011219
      3          6           0       -1.139800   -0.696065    0.377626
      4          6           0        1.139800    0.696065   -0.377626
      5          6           0       -1.143944    0.695183    0.366538
      6          6           0        1.143944   -0.695183   -0.366538
      7          1           0        2.033020   -1.234808   -0.670348
      8          1           0       -2.033020    1.234808    0.670348
      9          1           0        2.025662    1.236068   -0.690035
     10          1           0       -2.025662   -1.236068    0.690035
     11          7           0        0.008473   -2.841492    0.022641
     12          5           0        1.051049   -3.550184    0.722021
     13          5           0       -1.029645   -3.567492   -0.665524
     14          1           0        1.902364   -2.956477    1.303029
     15          7           0        1.028024   -4.978723    0.709015
     16          1           0       -1.884634   -2.988250   -1.255668
     17          7           0       -0.997751   -4.995484   -0.630168
     18          5           0        0.017485   -5.741160    0.045306
     19          1           0        1.756077   -5.468228    1.207074
     20          1           0       -1.722635   -5.497234   -1.120609
     21          1           0        0.021151   -6.932491    0.054661
     22          7           0       -0.008473    2.841492   -0.022641
     23          5           0       -1.051049    3.550184   -0.722021
     24          5           0        1.029645    3.567492    0.665524
     25          1           0       -1.902364    2.956477   -1.303029
     26          7           0       -1.028024    4.978723   -0.709015
     27          1           0        1.884634    2.988250    1.255668
     28          7           0        0.997751    4.995484    0.630168
     29          5           0       -0.017485    5.741160   -0.045306
     30          1           0       -1.756077    5.468228   -1.207074
     31          1           0        1.722635    5.497234    1.120609
     32          1           0       -0.021151    6.932491   -0.054661
 ---------------------------------------------------------------------

 SCF Done:  E(RB3LYP) =  -715.405199026     a.u. after    7 cycles
 SCF Done:  E(RB3LYP) =  -715.405203936     A.U. after    7 cycles

 Alpha  occ. eigenvalues --  -14.31376 -14.31376 -14.30323 -14.30323 -14.30323
 Alpha  occ. eigenvalues --  -14.30322 -10.21211 -10.21209 -10.17615 -10.17613
 Alpha  occ. eigenvalues --  -10.17558 -10.17558  -6.74941  -6.74941  -6.74941
 Alpha  occ. eigenvalues --   -6.74941  -6.74925  -6.74925  -0.92528  -0.91820
 Alpha  occ. eigenvalues --   -0.88454  -0.87602  -0.84924  -0.84924  -0.82479
 Alpha  occ. eigenvalues --   -0.75367  -0.71863  -0.62436  -0.61144  -0.55764
 Alpha  occ. eigenvalues --   -0.55652  -0.54946  -0.54095  -0.53870  -0.53800
 Alpha  occ. eigenvalues --   -0.48608  -0.47964  -0.46214  -0.45645  -0.45010
 Alpha  occ. eigenvalues --   -0.44830  -0.44819  -0.43611  -0.42722  -0.40003
 Alpha  occ. eigenvalues --   -0.39795  -0.38465  -0.38279  -0.37726  -0.36222
 Alpha  occ. eigenvalues --   -0.35687  -0.33664  -0.33624  -0.33242  -0.33128
 Alpha  occ. eigenvalues --   -0.30566  -0.29231  -0.29230  -0.28405  -0.25900
 Alpha  occ. eigenvalues --   -0.22782
 Alpha virt. eigenvalues --   -0.02052  -0.02050  -0.00710  -0.00591  -0.00476
 Alpha virt. eigenvalues --   -0.00327   0.00116   0.00215   0.00802   0.01020
 Alpha virt. eigenvalues --    0.01030   0.01467   0.02510   0.03099   0.03167

 Mulliken charges:
               1
     1  C   -0.282615
     2  C   -0.282615
     3  C   -0.026899
     4  C   -0.026899
     5  C   -0.026790
     6  C   -0.026790
     7  H    0.178165
     8  H    0.178165
     9  H    0.178163
    10  H    0.178163
    11  N   -0.315200
    12  B    0.302721
    13  B    0.302685
    14  H   -0.068539
    15  N   -0.501364
    16  H   -0.068526
    17  N   -0.501397
    18  B    0.324144
    19  H    0.280104
    20  H    0.280103
    21  H   -0.054754
    22  N   -0.315200
    23  B    0.302721
    24  B    0.302685
    25  H   -0.068539
    26  N   -0.501364
    27  H   -0.068526
    28  N   -0.501397
    29  B    0.324144
    30  H    0.280104
    31  H    0.280103
    32  H   -0.054754
 Sum of Mulliken charges =   0.00000

 Dipole moment (field-independent basis, Debye):
    X=             -0.0000    Y=              0.0000    Z=             -0.0000  Tot=              0.0000
 Quadrupole moment (field-independent basis, Debye-Ang):
   XX=            -99.0732   YY=            -93.8195   ZZ=           -108.2605
   XY=             -0.0053   XZ=              1.6601   YZ=             -0.1056

  Exact polarizability:     169.734      -0.260     291.078      13.994      -1.259     126.263
 Approx polarizability:     277.283      -0.124     341.690       9.630      -1.112     197.151

                      1                      2                      3
                      A                      A                      A
 Frequencies --     38.1073                43.8611                61.0754
 Red. masses --      5.3200                 3.8999                 4.8989
 Frc consts  --      0.0046                 0.0044                 0.0108
 IR Inten    --      0.4998                 0.4292                 0.4357

                      4                      5                      6
                      A                      A                      A
 Frequencies --     77.7828                97.9916               141.0616
 Red. masses --      3.8887                 4.4401                 4.6403
 Frc consts  --      0.0139                 0.0251                 0.0544
 IR Inten    --      0.0000                 0.0000                 0.0000

                      7                      8                      9
                      A                      A                      A
 Frequencies --    209.7244               217.5446               280.7155
 Red. masses --      6.7923                 3.5621                 3.1413
 Frc consts  --      0.1760                 0.0993                 0.1458
 IR Inten    --      0.0000                 0.4815                 0.0000

                     10                     11                     12
                      A                      A                      A
 Frequencies --    288.0702               288.4313               290.6105
 Red. masses --      4.1424                 2.8723                 2.8688
 Frc consts  --      0.2025                 0.1408                 0.1427
 IR Inten    --      1.3029                 1.7616                 0.0000

                     13                     14                     15
                      A                      A                      A
 Frequencies --    382.5221               402.4285               415.3228
 Red. masses --      6.5119                 2.9486                 2.0728
 Frc consts  --      0.5614                 0.2814                 0.2107
 IR Inten    --     10.4163                10.9713                 0.0000

                     16                     17                     18
                      A                      A                      A
 Frequencies --    431.6392               437.9560               442.1536
 Red. masses --      3.0552                 5.0440                 2.8725
 Frc consts  --      0.3354                 0.5700                 0.3309
 IR Inten    --      1.2842                 0.0000                21.8984

                     19                     20                     21
                      A                      A                      A
 Frequencies --    501.1838               532.2834               532.9011
 Red. masses --      4.1717                 6.5789                 6.4672
 Frc consts  --      0.6174                 1.0982                 1.0821
 IR Inten    --      0.0000                 0.5374                 0.0000

                     22                     23                     24
                      A                      A                      A
 Frequencies --    564.7807               573.5662               647.8566
 Red. masses --      7.6422                 2.3013                 6.2133
 Frc consts  --      1.4362                 0.4461                 1.5365
 IR Inten    --      0.0000                22.3060                 0.2777

                     25                     26                     27
                      A                      A                      A
 Frequencies --    656.2648               707.5156               707.5924
 Red. masses --      6.4489                 1.1628                 1.1624
 Frc consts  --      1.6364                 0.3430                 0.3429
 IR Inten    --      0.0000                 0.0589                 0.0000

                     28                     29                     30
                      A                      A                      A
 Frequencies --    722.7656               723.7573               753.5262
 Red. masses --      1.2360                 1.2633                 3.6855
 Frc consts  --      0.3804                 0.3899                 1.2330
 IR Inten    --     97.7807                 0.0000                 0.0000

                     31                     32                     33
                      A                      A                      A
 Frequencies --    755.6006               829.3136               853.9795
 Red. masses --      6.7391                 1.2442                 1.7306
 Frc consts  --      2.2669                 0.5042                 0.7436
 IR Inten    --      0.0000                 0.0000                18.6313

                     34                     35                     36
                      A                      A                      A
 Frequencies --    909.6987               913.2042               913.5240
 Red. masses --      3.6364                 3.0156                 1.5648
 Frc consts  --      1.7730                 1.4817                 0.7694
 IR Inten    --     10.5216                 0.0000                 0.0000

                     37                     38                     39
                      A                      A                      A
 Frequencies --    914.1312               918.5333               919.8985
 Red. masses --      1.5762                 1.5210                 1.6177
 Frc consts  --      0.7760                 0.7561                 0.8066
 IR Inten    --     20.0435                 2.5062                 0.0000

                     40                     41                     42
                      A                      A                      A
 Frequencies --    925.4701               926.0159               938.7207
 Red. masses --      1.5216                 1.5323                 5.5956
 Frc consts  --      0.7679                 0.7741                 2.9052
 IR Inten    --      0.0000               254.1275                 0.0000

                     43                     44                     45
                      A                      A                      A
 Frequencies --    939.8975               951.8197               966.9326
 Red. masses --      5.0031                 1.3987                 1.4639
 Frc consts  --      2.6040                 0.7466                 0.8064
 IR Inten    --      5.2959                 0.0000                 2.4486

                     46                     47                     48
                      A                      A                      A
 Frequencies --    969.2943               969.7955               982.1541
 Red. masses --      1.3896                 1.4380                 2.5064
 Frc consts  --      0.7692                 0.7968                 1.4245
 IR Inten    --      0.4307                 0.0000                 0.0000

                     49                     50                     51
                      A                      A                      A
 Frequencies --    987.4088              1039.9314              1063.7152
 Red. masses --      2.3380                 2.3597                 1.0866
 Frc consts  --      1.3431                 1.5036                 0.7244
 IR Inten    --      0.1784                 4.5162                 0.0000

                     52                     53                     54
                      A                      A                      A
 Frequencies --   1063.7289              1095.4280              1097.1969
 Red. masses --      1.0864                 1.2502                 1.2658
 Frc consts  --      0.7243                 0.8839                 0.8978
 IR Inten    --      0.4138                 0.0000                 5.2596

                     55                     56                     57
                      A                      A                      A
 Frequencies --   1141.2348              1197.5993              1198.4816
 Red. masses --      1.4059                 1.7643                 1.8007
 Frc consts  --      1.0788                 1.4909                 1.5239
 IR Inten    --      8.9002                13.6194                 0.0000

                     58                     59                     60
                      A                      A                      A
 Frequencies --   1211.8739              1218.2000              1218.4476
 Red. masses --      1.1178                 7.9735                 8.9680
 Frc consts  --      0.9673                 6.9717                 7.8444
 IR Inten    --      0.0000                 8.1910                 0.0000

                     61                     62                     63
                      A                      A                      A
 Frequencies --   1271.4110              1279.1384              1313.9154
 Red. masses --      2.6850                 5.7417                 8.4701
 Frc consts  --      2.5572                 5.5351                 8.6153
 IR Inten    --     54.1190                 0.0000                 1.1622

                     64                     65                     66
                      A                      A                      A
 Frequencies --   1333.7434              1366.0121              1366.2130
 Red. masses --      1.3075                 1.7067                 1.6774
 Frc consts  --      1.3703                 1.8764                 1.8447
 IR Inten    --      0.0000                 5.9624                 0.0000

                     67                     68                     69
                      A                      A                      A
 Frequencies --   1391.3483              1401.5440              1428.6237
 Red. masses --      2.3091                 2.3315                 3.6294
 Frc consts  --      2.6337                 2.6983                 4.3643
 IR Inten    --    572.1403                 0.0000               475.8657

                     70                     71                     72
                      A                      A                      A
 Frequencies --   1440.9173              1462.7070              1480.4557
 Red. masses --      4.5889                 3.7181                 3.2042
 Frc consts  --      5.6136                 4.6869                 4.1377
 IR Inten    --      0.0000               315.4152              1640.4528

                     73                     74                     75
                      A                      A                      A
 Frequencies --   1486.2511              1542.4769              1612.1966
 Red. masses --      3.4885                 2.5977                 7.0617
 Frc consts  --      4.5402                 3.6414                10.8142
 IR Inten    --      0.0000               149.0185                 0.0000

                     76                     77                     78
                      A                      A                      A
 Frequencies --   1652.8874              2617.2997              2617.8214
 Red. masses --      5.9438                 1.0998                 1.0999
 Frc consts  --      9.5676                 4.4388                 4.4411
 IR Inten    --      0.0000               569.5691                 0.0000

                     79                     80                     81
                      A                      A                      A
 Frequencies --   2626.5285              2627.4986              2634.5551
 Red. masses --      1.0972                 1.0975                 1.1003
 Frc consts  --      4.4596                 4.4643                 4.4994
 IR Inten    --      0.0000               377.9841                11.7426

                     82                     83                     84
                      A                      A                      A
 Frequencies --   2635.1641              3173.3281              3174.0551
 Red. masses --      1.1005                 1.0878                 1.0880
 Frc consts  --      4.5024                 6.4541                 6.4582
 IR Inten    --      0.0000                24.5927                 0.0000

                     85                     86                     87
                      A                      A                      A
 Frequencies --   3188.7493              3191.3186              3628.8695
 Red. masses --      1.0945                 1.0951                 1.0765
 Frc consts  --      6.5572                 6.5711                 8.3520
 IR Inten    --     12.2181                 0.0000                50.0505

                     88                     89                     90
                      A                      A                      A
 Frequencies --   3628.9498              3630.0755              3630.0902
 Red. masses --      1.0765                 1.0758                 1.0758
 Frc consts  --      8.3526                 8.3527                 8.3528
 IR Inten    --      0.0000                 0.0000               102.7105

 - Thermochemistry -
 -------------------
 Temperature   298.150 Kelvin.  Pressure   1.00000 Atm.
 Atom     1 has atomic number  6 and mass  12.00000

 Molecular mass:   236.18383 amu.
 Principal axes and moments of inertia in atomic units:
                           1         2         3
     Eigenvalues --   992.22982********************
           X           -0.00303   0.93788  -0.34694
           Y            0.99996   0.00559   0.00637
           Z           -0.00791   0.34691   0.93787
 This molecule is an asymmetric top.
 Rotational symmetry number  1.
 Warning -- assumption of classical behavior for rotation
           may cause significant error
 Rotational temperatures (Kelvin)      0.08729     0.00740     0.00699
 Rotational constants (GHZ):           1.81887     0.15419     0.14575
 Zero-point vibrational energy     646201.0 (Joules/Mol)
                                  154.44574 (Kcal/Mol)
 Warning -- explicit consideration of  23 degrees of freedom as
           vibrations may cause significant error
 Vibrational temperatures:     54.83    63.11    87.87   111.91   140.99
          (Kelvin)            202.96   301.75   313.00   403.89   414.47
                              414.99   418.12   550.36   579.00   597.56
                              621.03   630.12   636.16   721.09   765.84
                              766.73   812.59   825.23   932.12   944.22
                             1017.96  1018.07  1039.90  1041.33  1084.16
                             1087.14  1193.20  1228.69  1308.85  1313.90
                             1314.36  1315.23  1321.56  1323.53  1331.55
                             1332.33  1350.61  1352.30  1369.46  1391.20
                             1394.60  1395.32  1413.10  1420.66  1496.23
                             1530.45  1530.47  1576.08  1578.62  1641.98
                             1723.08  1724.35  1743.62  1752.72  1753.07
                             1829.28  1840.39  1890.43  1918.96  1965.39
                             1965.68  2001.84  2016.51  2055.47  2073.16
                             2104.51  2130.05  2138.38  2219.28  2319.59
                             2378.14  3765.71  3766.46  3778.99  3780.38
                             3790.54  3791.41  4565.71  4566.76  4587.90
                             4591.60  5221.13  5221.25  5222.87  5222.89

 Zero-point correction=                           0.246125 (Hartree/Particle)
 Thermal correction to Energy=                    0.261329
 Thermal correction to Enthalpy=                  0.262273
 Thermal correction to Gibbs Free Energy=         0.203144
 Sum of electronic and zero-point Energies=           -715.159079
 Sum of electronic and thermal Energies=              -715.143875
 Sum of electronic and thermal Enthalpies=            -715.142931
 Sum of electronic and thermal Free Energies=         -715.202060

                     E (Thermal)             CV                S
                      KCal/Mol        Cal/Mol-Kelvin    Cal/Mol-Kelvin
 Total                  163.986             61.786            124.448
 Electronic               0.000              0.000              0.000
 Translational            0.889              2.981             42.280
 Rotational               0.889              2.981             33.330
 Vibrational            162.209             55.825             48.838
 Vibration     1          0.594              1.982              5.355
 Vibration     2          0.595              1.980              5.077
 Vibration     3          0.597              1.973              4.422
 Vibration     4          0.599              1.964              3.946
 Vibration     5          0.603              1.951              3.494
 Vibration     6          0.615              1.912              2.789
 Vibration     7          0.642              1.826              2.046
 Vibration     8          0.646              1.814              1.979
 Vibration     9          0.680              1.709              1.529
 Vibration    10          0.685              1.696              1.485
 Vibration    11          0.685              1.695              1.483
 Vibration    12          0.687              1.691              1.470
 Vibration    13          0.752              1.507              1.029
 Vibration    14          0.768              1.465              0.954
 Vibration    15          0.779              1.437              0.908
 Vibration    16          0.793              1.401              0.853
 Vibration    17          0.798              1.387              0.833
 Vibration    18          0.802              1.378              0.820
 Vibration    19          0.857              1.247              0.655
 Vibration    20          0.887              1.179              0.582
 Vibration    21          0.888              1.177              0.581
 Vibration    22          0.921              1.107              0.514
 Vibration    23          0.930              1.088              0.497

 Optimization completed.
    -- Stationary point found.
 Normal termination of Gaussian 16 at Sat Oct 17 02:07:15 2020.
