 Gaussian 16, Revision C.01,
 Gaussian 16:  ES64L-G16RevC.01  3-Jul-2019

 ----------------------------------------------------------------------
 #P B3LYP/6-311++G(d,p) EmpiricalDispersion=GD3 freq(noraman) SCF=YQC N
 oSymm
 ----------------------------------------------------------------------

 -----------------------------------------------------
 Restart from 2_Phenyl_H_CarboxylicAnhydride_Imide.log
 -----------------------------------------------------
 Symbolic Z-matrix:
 Charge =  0 Multiplicity = 1

                          Input orientation:
 ---------------------------------------------------------------------
 Center     Atomic      Atomic             Coordinates (Angstroms)
 Number     Number       Type             X           Y           Z
 ---------------------------------------------------------------------
      1          6           0        0.673120   -1.171631    0.177697
      2          6           0        1.394814   -0.001806    0.382594
      3          6           0        0.672750    1.169896    0.190107
      4          6           0       -0.673177    1.171631   -0.177587
      5          6           0       -1.394870    0.001806   -0.382487
      6          6           0       -0.672807   -1.169896   -0.189996
      7          1           0        2.439088   -0.003154    0.668357
      8          1           0       -2.439144    0.003154   -0.668250
      9          6           0       -1.128050    2.588487   -0.296021
     10          6           0        1.127186    2.585560    0.323517
     11          7           0       -0.000475    3.382687    0.017666
     12          8           0        2.222466    2.986904    0.625569
     13          8           0       -2.223297    2.992665   -0.594388
     14          6           0       -0.000559    4.811190    0.024697
     15          6           0        1.052211    5.505728   -0.572818
     16          1           0        1.867760    4.962013   -1.029635
     17          6           0        1.049700    6.897610   -0.557387
     18          1           0        1.870306    7.436858   -1.015973
     19          6           0       -0.000767    7.593837    0.038352
     20          1           0       -0.000851    8.677657    0.043665
     21          6           0       -1.051122    6.891638    0.627236
     22          1           0       -1.871809    7.426235    1.091092
     23          6           0       -1.053428    5.499670    0.629005
     24          1           0       -1.868897    4.951371    1.080454
     25          6           0        1.127992   -2.588487    0.296138
     26          6           0       -1.127244   -2.585560   -0.323400
     27          7           0        0.000429   -3.382687   -0.017596
     28          8           0       -2.222513   -2.986908   -0.625488
     29          8           0        2.223251   -2.992661    0.594469
     30          6           0        0.000517   -4.811190   -0.024692
     31          6           0       -1.052264   -5.505745    0.572781
     32          1           0       -1.867811   -4.962042    1.029616
     33          6           0       -1.049766   -6.897627    0.557284
     34          1           0       -1.870379   -7.436888    1.015841
     35          6           0        0.000695   -7.593836   -0.038485
     36          1           0        0.000768   -8.677655   -0.043852
     37          6           0        1.051055   -6.891620   -0.627340
     38          1           0        1.871734   -7.426204   -1.091226
     39          6           0        1.053374   -5.499652   -0.629043
     40          1           0        1.868845   -4.951341   -1.080474
 ---------------------------------------------------------------------

 SCF Done:  E(RB3LYP) =  -1256.39933809     a.u. after    8 cycles
 SCF Done:  E(RB3LYP) =  -1256.39934630     A.U. after    9 cycles

 Alpha  occ. eigenvalues --  -19.14663 -19.14663 -19.14663 -19.14663 -14.39623
 Alpha  occ. eigenvalues --  -14.39623 -10.32424 -10.32424 -10.32424 -10.32423
 Alpha  occ. eigenvalues --  -10.23950 -10.23950 -10.23927 -10.23917 -10.23883
 Alpha  occ. eigenvalues --  -10.23860 -10.23794 -10.23786 -10.19402 -10.19402
 Alpha  occ. eigenvalues --  -10.19401 -10.19401 -10.19156 -10.19156 -10.19145
 Alpha  occ. eigenvalues --  -10.19145 -10.19020 -10.19019  -1.10520  -1.10475
 Alpha  occ. eigenvalues --   -1.08779  -1.08768  -0.99648  -0.99476  -0.92760
 Alpha  occ. eigenvalues --   -0.88516  -0.87374  -0.84071  -0.81730  -0.78889
 Alpha  occ. eigenvalues --   -0.76894  -0.76894  -0.75873  -0.71691  -0.71228
 Alpha  occ. eigenvalues --   -0.68329  -0.65209  -0.65054  -0.63208  -0.63001
 Alpha  occ. eigenvalues --   -0.61732  -0.60374  -0.57931  -0.56745  -0.54870
 Alpha  occ. eigenvalues --   -0.53453  -0.52154  -0.51210  -0.50731  -0.50519
 Alpha  occ. eigenvalues --   -0.49580  -0.49563  -0.48831  -0.48799  -0.47287
 Alpha  occ. eigenvalues --   -0.47244  -0.46617  -0.46439  -0.45637  -0.45222
 Alpha  occ. eigenvalues --   -0.45101  -0.44221  -0.44084  -0.43189  -0.42865
 Alpha  occ. eigenvalues --   -0.41933  -0.41255  -0.39262  -0.38900  -0.38360
 Alpha  occ. eigenvalues --   -0.38338  -0.37132  -0.37128  -0.32833  -0.32801
 Alpha  occ. eigenvalues --   -0.32408  -0.31938  -0.31506  -0.31444  -0.30197
 Alpha  occ. eigenvalues --   -0.29657  -0.27262  -0.27251  -0.26354  -0.25813
 Alpha virt. eigenvalues --   -0.13144  -0.09380  -0.07406  -0.03528  -0.03037
 Alpha virt. eigenvalues --   -0.02991  -0.02952  -0.01572  -0.00854  -0.00351
 Alpha virt. eigenvalues --    0.00587   0.00910   0.01158   0.01633   0.02372

 Mulliken charges:
               1
     1  C    0.242444
     2  C   -0.686389
     3  C    0.242384
     4  C    0.242456
     5  C   -0.686399
     6  C    0.242398
     7  H    0.225258
     8  H    0.225258
     9  C   -0.059568
    10  C   -0.059587
    11  N    0.405232
    12  O   -0.251354
    13  O   -0.251368
    14  C   -0.607761
    15  C    0.238133
    16  H    0.198309
    17  C   -0.135155
    18  H    0.182756
    19  C   -0.326822
    20  H    0.159590
    21  C   -0.134564
    22  H    0.182765
    23  C    0.237378
    24  H    0.198312
    25  C   -0.059566
    26  C   -0.059592
    27  N    0.405232
    28  O   -0.251353
    29  O   -0.251369
    30  C   -0.607761
    31  C    0.238073
    32  H    0.198309
    33  C   -0.135107
    34  H    0.182757
    35  C   -0.326822
    36  H    0.159590
    37  C   -0.134612
    38  H    0.182764
    39  C    0.237440
    40  H    0.198312
 Sum of Mulliken charges =  -0.00000

 Dipole moment (field-independent basis, Debye):
    X=             -0.0001    Y=              0.0000    Z=             -0.0000  Tot=              0.0001
 Quadrupole moment (field-independent basis, Debye-Ang):
   XX=           -172.7659   YY=           -133.5684   ZZ=           -160.5694
   XY=              0.0680   XZ=            -14.3414   YZ=              0.1340

  Exact polarizability:     263.749      -0.004     479.745      -4.754       1.649     156.018
 Approx polarizability:     530.483      -0.017     583.960      -0.267       1.620     265.664

                      1                      2                      3
                      A                      A                      A
 Frequencies --     20.2527                42.3585                45.6532
 Red. masses --      6.3454                 4.0432                 7.7149
 Frc consts  --      0.0015                 0.0043                 0.0095
 IR Inten    --      0.2189                 0.2448                 0.0000

                      4                      5                      6
                      A                      A                      A
 Frequencies --     54.1397                56.1598                79.1244
 Red. masses --      5.9066                 4.4146                10.9786
 Frc consts  --      0.0102                 0.0082                 0.0405
 IR Inten    --      0.3407                 0.0000                 0.5984

                      7                      8                      9
                      A                      A                      A
 Frequencies --     89.9706               115.7884               143.9296
 Red. masses --      6.2345                 8.7755                 9.1626
 Frc consts  --      0.0297                 0.0693                 0.1118
 IR Inten    --      0.0000                 7.1200                 6.9387

                     10                     11                     12
                      A                      A                      A
 Frequencies --    155.8092               182.8119               188.4207
 Red. masses --      8.9173                 7.9597                 7.4518
 Frc consts  --      0.1275                 0.1567                 0.1559
 IR Inten    --      0.0000                 5.6474                 0.0000

                     13                     14                     15
                      A                      A                      A
 Frequencies --    195.1565               238.7375               266.8449
 Red. masses --      5.6135                 7.2867                10.0489
 Frc consts  --      0.1260                 0.2447                 0.4216
 IR Inten    --      0.0000                 0.0000                 0.0000

                     16                     17                     18
                      A                      A                      A
 Frequencies --    276.8029               286.1019               287.2301
 Red. masses --      5.8379                 8.8486                 6.4757
 Frc consts  --      0.2635                 0.4267                 0.3148
 IR Inten    --      1.1468                16.1355                 0.0000

                     19                     20                     21
                      A                      A                      A
 Frequencies --    314.4024               384.5734               406.5629
 Red. masses --     12.7415                 5.2138                 6.6636
 Frc consts  --      0.7421                 0.4543                 0.6490
 IR Inten    --      0.0000                 0.0787                 0.0000

                     22                     23                     24
                      A                      A                      A
 Frequencies --    415.6345               415.7138               422.7209
 Red. masses --      2.9038                 2.9002                 3.4534
 Frc consts  --      0.2956                 0.2953                 0.3636
 IR Inten    --      0.5602                 0.0000                 2.2903

                     25                     26                     27
                      A                      A                      A
 Frequencies --    435.8164               503.3137               515.5345
 Red. masses --      9.8569                12.2029                 3.3549
 Frc consts  --      1.1031                 1.8213                 0.5253
 IR Inten    --     31.3028                 0.0093                24.0005

                     28                     29                     30
                      A                      A                      A
 Frequencies --    516.5452               561.7485               574.8133
 Red. masses --      3.3715                11.0615                 9.3712
 Frc consts  --      0.5300                 2.0566                 1.8243
 IR Inten    --      0.0000                 0.0000                 6.1448

                     31                     32                     33
                      A                      A                      A
 Frequencies --    580.0104               625.9893               631.4764
 Red. masses --      6.1939                11.6399                 6.4377
 Frc consts  --      1.2277                 2.6874                 1.5125
 IR Inten    --      0.0000                54.8349                 0.9254

                     34                     35                     36
                      A                      A                      A
 Frequencies --    631.5124               635.0665               649.0207
 Red. masses --      6.3877                 9.5190                 8.0348
 Frc consts  --      1.5009                 2.2619                 1.9941
 IR Inten    --      0.0000                 0.0000                 0.0000

                     37                     38                     39
                      A                      A                      A
 Frequencies --    685.2078               699.6904               699.7881
 Red. masses --      6.6060                 2.0471                 1.9977
 Frc consts  --      1.8274                 0.5905                 0.5764
 IR Inten    --      7.5269                 0.0003                50.9223

                     40                     41                     42
                      A                      A                      A
 Frequencies --    734.6082               740.9164               744.7900
 Red. masses --      5.3002                 7.4168                 2.7027
 Frc consts  --      1.6852                 2.3989                 0.8833
 IR Inten    --     23.2209                 0.0000                 0.0000

                     43                     44                     45
                      A                      A                      A
 Frequencies --    765.4447               768.4976               783.6113
 Red. masses --      1.8966                10.6517                 2.7919
 Frc consts  --      0.6547                 3.7064                 1.0101
 IR Inten    --    130.4496                 0.0000                 0.0000

                     46                     47                     48
                      A                      A                      A
 Frequencies --    793.4276               798.2644               842.2242
 Red. masses --      6.2630                12.0391                 1.3988
 Frc consts  --      2.3230                 4.5200                 0.5846
 IR Inten    --      0.0000                 3.5725                 0.0000

                     49                     50                     51
                      A                      A                      A
 Frequencies --    842.9030               847.1285               849.3531
 Red. masses --      1.2560                 8.1102                 4.4396
 Frc consts  --      0.5258                 3.4291                 1.8870
 IR Inten    --      0.0381                58.8816                 0.0000

                     52                     53                     54
                      A                      A                      A
 Frequencies --    879.5458               925.3366               926.4526
 Red. masses --      4.7914                 1.4178                 1.4420
 Frc consts  --      2.1839                 0.7153                 0.7292
 IR Inten    --     41.8948                 0.0000                11.5057

                     55                     56                     57
                      A                      A                      A
 Frequencies --    941.7040               949.9671               982.3675
 Red. masses --      1.3386                 1.5120                 1.3730
 Frc consts  --      0.6994                 0.8039                 0.7807
 IR Inten    --      0.0000                12.3572                 0.0148

                     58                     59                     60
                      A                      A                      A
 Frequencies --    982.3735              1003.3830              1003.3877
 Red. masses --      1.3730                 1.2950                 1.2952
 Frc consts  --      0.7807                 0.7682                 0.7683
 IR Inten    --      0.0000                 0.6154                 0.0067

                     61                     62                     63
                      A                      A                      A
 Frequencies --   1018.5558              1018.5839              1050.6531
 Red. masses --      6.1681                 6.1793                 2.3091
 Frc consts  --      3.7702                 3.7773                 1.5018
 IR Inten    --      2.7343                 0.0000                 9.8889

                     64                     65                     66
                      A                      A                      A
 Frequencies --   1050.9204              1063.4760              1091.6349
 Red. masses --      2.3412                 9.0836                 3.4359
 Frc consts  --      1.5234                 6.0529                 2.4124
 IR Inten    --      0.0000                 0.0000               112.4781

                     67                     68                     69
                      A                      A                      A
 Frequencies --   1093.3481              1103.9299              1130.2289
 Red. masses --      1.7092                 2.6436                 2.2770
 Frc consts  --      1.2038                 1.8981                 1.7137
 IR Inten    --      2.6550                 0.0000               142.8417

                     70                     71                     72
                      A                      A                      A
 Frequencies --   1136.4796              1141.1943              1177.4021
 Red. masses --      2.8922                 4.4017                 8.5458
 Frc consts  --      2.2009                 3.3774                 6.9799
 IR Inten    --      0.0000                 0.0000                 0.7958

                     73                     74                     75
                      A                      A                      A
 Frequencies --   1193.9684              1193.9921              1196.6801
 Red. masses --      1.1210                 1.1222                 3.0363
 Frc consts  --      0.9415                 0.9426                 2.5618
 IR Inten    --      0.0000                 0.0871               194.9472

                     76                     77                     78
                      A                      A                      A
 Frequencies --   1215.1601              1216.3053              1230.1087
 Red. masses --      1.1434                 1.2163                 1.3084
 Frc consts  --      0.9947                 1.0602                 1.1665
 IR Inten    --      0.0000                 5.9448                 0.0000

                     79                     80                     81
                      A                      A                      A
 Frequencies --   1292.0605              1333.5321              1333.6371
 Red. masses --      8.0312                 5.2203                 5.2338
 Frc consts  --      7.8994                 5.4696                 5.4846
 IR Inten    --      0.0000                 0.0000                 3.9972

                     82                     83                     84
                      A                      A                      A
 Frequencies --   1362.5836              1362.5952              1374.9861
 Red. masses --      1.3894                 1.3902                 8.0539
 Frc consts  --      1.5199                 1.5207                 8.9712
 IR Inten    --      0.9835                 0.0001              1293.2769

                     85                     86                     87
                      A                      A                      A
 Frequencies --   1388.7607              1410.2474              1476.0630
 Red. masses --      8.8359                10.4396                 3.3083
 Frc consts  --     10.0405                12.2328                 4.2468
 IR Inten    --      0.0000                65.6239                27.0445

                     88                     89                     90
                      A                      A                      A
 Frequencies --   1484.3062              1486.9763              1487.1625
 Red. masses --      8.6330                 2.2692                 2.3756
 Frc consts  --     11.2062                 2.9562                 3.0956
 IR Inten    --      2.8725                 0.0000                10.0021

                     91                     92                     93
                      A                      A                      A
 Frequencies --   1530.2348              1530.3353              1629.2864
 Red. masses --      2.2602                 2.2587                 5.8441
 Frc consts  --      3.1182                 3.1165                 9.1404
 IR Inten    --    162.3748                 0.0002                 0.0002

                     94                     95                     96
                      A                      A                      A
 Frequencies --   1629.3452              1640.2741              1641.3129
 Red. masses --      5.8451                 5.7034                 5.3947
 Frc consts  --      9.1426                 9.0410                 8.5625
 IR Inten    --      3.7374                 0.0000                35.2457

                     97                     98                     99
                      A                      A                      A
 Frequencies --   1649.0349              1649.9844              1778.2804
 Red. masses --      7.6637                 9.5588                12.9279
 Frc consts  --     12.2786                15.3325                24.0867
 IR Inten    --      0.0000                 0.0000                 0.0001

                    100                    101                    102
                      A                      A                      A
 Frequencies --   1782.5550              1827.5304              1838.3439
 Red. masses --     12.9746                13.0402                13.0020
 Frc consts  --     24.2901                25.6605                25.8890
 IR Inten    --   1180.1444               144.4109                 0.0000

                    103                    104                    105
                      A                      A                      A
 Frequencies --   3167.3798              3167.3873              3178.8509
 Red. masses --      1.0862                 1.0862                 1.0903
 Frc consts  --      6.4206                 6.4206                 6.4914
 IR Inten    --      0.0608                 0.0037                 0.2141

                    106                    107                    108
                      A                      A                      A
 Frequencies --   3178.8536              3190.1099              3190.1485
 Red. masses --      1.0903                 1.0953                 1.0953
 Frc consts  --      6.4914                 6.5675                 6.5676
 IR Inten    --     20.1430                46.1843                 0.1018

                    109                    110                    111
                      A                      A                      A
 Frequencies --   3207.0741              3207.7691              3210.9677
 Red. masses --      1.0936                 1.0933                 1.0934
 Frc consts  --      6.6272                 6.6282                 6.6422
 IR Inten    --      3.1395                 0.0000                 0.0948

                    112                    113                    114
                      A                      A                      A
 Frequencies --   3210.9698              3211.7518              3211.7524
 Red. masses --      1.0934                 1.0949                 1.0949
 Frc consts  --      6.6422                 6.6543                 6.6543
 IR Inten    --      4.9582                 0.0182                 0.0042

 - Thermochemistry -
 -------------------
 Temperature   298.150 Kelvin.  Pressure   1.00000 Atm.
 Atom     1 has atomic number  6 and mass  12.00000

 Molecular mass:   368.07971 amu.
 Principal axes and moments of inertia in atomic units:
                           1         2         3
     Eigenvalues --  2390.92209********************
           X           -0.00011   0.99550  -0.09479
           Y            0.99999  -0.00037  -0.00510
           Z            0.00511   0.09479   0.99548
 This molecule is an asymmetric top.
 Rotational symmetry number  1.
 Warning -- assumption of classical behavior for rotation
           may cause significant error
 Rotational temperatures (Kelvin)      0.03623     0.00323     0.00302
 Rotational constants (GHZ):           0.75483     0.06738     0.06298
 Zero-point vibrational energy     763882.5 (Joules/Mol)
                                  182.57231 (Kcal/Mol)
 Warning -- explicit consideration of  31 degrees of freedom as
           vibrations may cause significant error
 Vibrational temperatures:     29.14    60.94    65.68    77.90    80.80
          (Kelvin)            113.84   129.45   166.59   207.08   224.17
                              263.03   271.10   280.79   343.49   383.93
                              398.26   411.64   413.26   452.35   553.32
                              584.95   598.01   598.12   608.20   627.04
                              724.16   741.74   743.19   808.23   827.03
                              834.51   900.66   908.55   908.61   913.72
                              933.80   985.86  1006.70  1006.84  1056.94
                             1066.01  1071.59  1101.30  1105.70  1127.44
                             1141.57  1148.52  1211.77  1212.75  1218.83
                             1222.03  1265.47  1331.35  1332.96  1354.90
                             1366.79  1413.41  1413.42  1443.64  1443.65
                             1465.47  1465.52  1511.66  1512.04  1530.10
                             1570.62  1573.08  1588.31  1626.15  1635.14
                             1641.92  1694.02  1717.85  1717.89  1721.76
                             1748.34  1749.99  1769.85  1858.99  1918.66
                             1918.81  1960.45  1960.47  1978.30  1998.12
                             2029.03  2123.73  2135.59  2139.43  2139.70
                             2201.67  2201.81  2344.18  2344.26  2359.99
                             2361.48  2372.59  2373.96  2558.55  2564.70
                             2629.41  2644.97  4557.15  4557.16  4573.66
                             4573.66  4589.86  4589.91  4614.26  4615.26
                             4619.87  4619.87  4620.99  4621.00

 Zero-point correction=                           0.290947 (Hartree/Particle)
 Thermal correction to Energy=                    0.311894
 Thermal correction to Enthalpy=                  0.312838
 Thermal correction to Gibbs Free Energy=         0.239513
 Sum of electronic and zero-point Energies=          -1256.108399
 Sum of electronic and thermal Energies=             -1256.087452
 Sum of electronic and thermal Enthalpies=           -1256.086508
 Sum of electronic and thermal Free Energies=        -1256.159833

                     E (Thermal)             CV                S
                      KCal/Mol        Cal/Mol-Kelvin    Cal/Mol-Kelvin
 Total                  195.717             82.640            154.326
 Electronic               0.000              0.000              0.000
 Translational            0.889              2.981             43.602
 Rotational               0.889              2.981             35.860
 Vibrational            193.939             76.678             74.863
 Vibration     1          0.593              1.986              6.609
 Vibration     2          0.595              1.980              5.146
 Vibration     3          0.595              1.979              4.997
 Vibration     4          0.596              1.976              4.660
 Vibration     5          0.596              1.975              4.588
 Vibration     6          0.600              1.963              3.912
 Vibration     7          0.602              1.956              3.661
 Vibration     8          0.608              1.936              3.169
 Vibration     9          0.616              1.909              2.751
 Vibration    10          0.620              1.896              2.600
 Vibration    11          0.630              1.863              2.300
 Vibration    12          0.633              1.856              2.243
 Vibration    13          0.636              1.847              2.178
 Vibration    14          0.657              1.781              1.812
 Vibration    15          0.672              1.734              1.617
 Vibration    16          0.678              1.716              1.553
 Vibration    17          0.684              1.699              1.497
 Vibration    18          0.684              1.697              1.490
 Vibration    19          0.702              1.646              1.339
 Vibration    20          0.754              1.503              1.021
 Vibration    21          0.771              1.456              0.939
 Vibration    22          0.779              1.436              0.907
 Vibration    23          0.779              1.436              0.907
 Vibration    24          0.785              1.421              0.883
 Vibration    25          0.796              1.392              0.840
 Vibration    26          0.859              1.243              0.650
 Vibration    27          0.871              1.216              0.620
 Vibration    28          0.872              1.213              0.618
 Vibration    29          0.917              1.114              0.520
 Vibration    30          0.931              1.086              0.495
 Vibration    31          0.937              1.075              0.485

 Optimization completed.
    -- Stationary point found.
 Normal termination of Gaussian 16 at Wed Jan 13 03:35:18 2021.
