 Gaussian 16, Revision C.01,
 Gaussian 16:  ES64L-G16RevC.01  3-Jul-2019

 ----------------------------------------------------------------------
 #P B3LYP/6-311++G(d,p) EmpiricalDispersion=GD3 freq(noraman) SCF=YQC N
 oSymm
 ----------------------------------------------------------------------

 --------------------------------------------------
 Restart from 2_Phenyl_PrimaryAmine_Ketoenamine.log
 --------------------------------------------------
 Symbolic Z-matrix:
 Charge =  0 Multiplicity = 1

                          Input orientation:
 ---------------------------------------------------------------------
 Center     Atomic      Atomic             Coordinates (Angstroms)
 Number     Number       Type             X           Y           Z
 ---------------------------------------------------------------------
      1          6           0       -0.013029   -1.410646   -0.038266
      2          6           0        0.013021    1.410643    0.038255
      3          6           0       -1.212037   -0.685892   -0.028010
      4          6           0        1.212029    0.685888    0.027999
      5          6           0       -1.194800    0.701128    0.004605
      6          6           0        1.194792   -0.701132   -0.004617
      7          1           0        2.132168   -1.246240   -0.025463
      8          1           0       -2.132176    1.246236    0.025451
      9          1           0        2.167507    1.194545    0.020494
     10          1           0       -2.167515   -1.194549   -0.020505
     11          1           0        2.552808   -7.210600   -0.026909
     12          6           0        1.667750   -7.833379    0.010392
     13          6           0        1.767413   -9.219716    0.039326
     14          1           0        2.743303   -9.691623    0.014707
     15          6           0        0.614140  -10.003295    0.103198
     16          1           0        0.690943  -11.084570    0.130018
     17          6           0       -0.637687   -9.390849    0.137772
     18          1           0       -1.536443   -9.994079    0.199755
     19          6           0       -0.737842   -8.002218    0.097016
     20          1           0       -1.718425   -7.544999    0.141849
     21          6           0        0.413970   -7.206610    0.029826
     22          6           0        0.375381   -5.706724    0.001549
     23          8           0        1.415272   -5.072947    0.266526
     24          6           0       -0.853456   -5.030200   -0.351678
     25          6           0       -0.961438   -3.663681   -0.374424
     26          1           0       -1.722219   -5.598050   -0.648133
     27          7           0        0.039288   -2.810744   -0.072585
     28          1           0       -1.903253   -3.213107   -0.666796
     29          1           0        0.921663   -3.284980    0.138913
     30          1           0       -2.552805    7.210617    0.027020
     31          6           0       -1.667744    7.833390   -0.010327
     32          6           0       -1.767399    9.219728   -0.039264
     33          1           0       -2.743285    9.691641   -0.014602
     34          6           0       -0.614124   10.003298   -0.103196
     35          1           0       -0.690921   11.084573   -0.130019
     36          6           0        0.637698    9.390843   -0.137826
     37          1           0        1.536455    9.994067   -0.199856
     38          6           0        0.737845    8.002212   -0.097066
     39          1           0        1.718423    7.544987   -0.141943
     40          6           0       -0.413969    7.206612   -0.029816
     41          6           0       -0.375390    5.706727   -0.001532
     42          8           0       -1.415305    5.072958   -0.266432
     43          6           0        0.853453    5.030196    0.351667
     44          6           0        0.961433    3.663677    0.374408
     45          1           0        1.722222    5.598043    0.648108
     46          7           0       -0.039295    2.810741    0.072574
     47          1           0        1.903250    3.213101    0.666768
     48          1           0       -0.921668    3.284977   -0.138930
 ---------------------------------------------------------------------

 SCF Done:  E(RB3LYP) =  -1186.91506714     a.u. after    6 cycles
 SCF Done:  E(RB3LYP) =  -1186.91510431     A.U. after   11 cycles

 Alpha  occ. eigenvalues --  -19.10054 -19.10054 -14.36504 -14.36504 -10.25610
 Alpha  occ. eigenvalues --  -10.25610 -10.24097 -10.24097 -10.23669 -10.23667
 Alpha  occ. eigenvalues --  -10.19682 -10.19681 -10.19607 -10.19606 -10.18836
 Alpha  occ. eigenvalues --  -10.18836 -10.18713 -10.18713 -10.18577 -10.18577
 Alpha  occ. eigenvalues --  -10.18374 -10.18374 -10.18197 -10.18197 -10.17979
 Alpha  occ. eigenvalues --  -10.17979 -10.17142 -10.17142  -1.03191  -1.03188
 Alpha  occ. eigenvalues --   -0.98011  -0.97638  -0.87274  -0.86703  -0.86703
 Alpha  occ. eigenvalues --   -0.80652  -0.78654  -0.77552  -0.77158  -0.76154
 Alpha  occ. eigenvalues --   -0.75666  -0.75622  -0.73263  -0.68134  -0.66038
 Alpha  occ. eigenvalues --   -0.65209  -0.63009  -0.62673  -0.61750  -0.61036
 Alpha  occ. eigenvalues --   -0.59922  -0.57321  -0.57224  -0.56052  -0.55656
 Alpha  occ. eigenvalues --   -0.53091  -0.52659  -0.49625  -0.48354  -0.48009
 Alpha  occ. eigenvalues --   -0.47427  -0.46717  -0.46371  -0.46171  -0.45514
 Alpha  occ. eigenvalues --   -0.44747  -0.44684  -0.44262  -0.43203  -0.43193
 Alpha  occ. eigenvalues --   -0.43172  -0.42949  -0.42529  -0.42309  -0.41997
 Alpha  occ. eigenvalues --   -0.40707  -0.40483  -0.39931  -0.39757  -0.37038
 Alpha  occ. eigenvalues --   -0.37025  -0.36595  -0.36568  -0.36394  -0.35181
 Alpha  occ. eigenvalues --   -0.35151  -0.34659  -0.28691  -0.28004  -0.26720
 Alpha  occ. eigenvalues --   -0.26653  -0.26471  -0.26464  -0.25714  -0.25692
 Alpha  occ. eigenvalues --   -0.24162  -0.20397
 Alpha virt. eigenvalues --   -0.08238  -0.06920  -0.03762  -0.02664  -0.02202
 Alpha virt. eigenvalues --   -0.01902  -0.01350  -0.01029  -0.00855  -0.00425
 Alpha virt. eigenvalues --   -0.00346   0.00646   0.00923   0.01311   0.01518

 Mulliken charges:
               1
     1  C   -0.548713
     2  C   -0.548738
     3  C    0.247982
     4  C    0.248017
     5  C   -0.278522
     6  C   -0.278505
     7  H    0.157673
     8  H    0.157675
     9  H    0.156513
    10  H    0.156512
    11  H    0.180107
    12  C    0.193185
    13  C   -0.122901
    14  H    0.172333
    15  C   -0.440352
    16  H    0.156941
    17  C   -0.305732
    18  H    0.176211
    19  C   -1.427633
    20  H    0.102509
    21  C    1.208837
    22  C   -0.067947
    23  O   -0.290249
    24  C   -0.254426
    25  C    0.129560
    26  H    0.149235
    27  N    0.138002
    28  H    0.120395
    29  H    0.446979
    30  H    0.180110
    31  C    0.193216
    32  C   -0.122908
    33  H    0.172333
    34  C   -0.440349
    35  H    0.156940
    36  C   -0.305725
    37  H    0.176211
    38  C   -1.427654
    39  H    0.102512
    40  C    1.208808
    41  C   -0.067952
    42  O   -0.290248
    43  C   -0.254414
    44  C    0.129570
    45  H    0.149240
    46  N    0.137997
    47  H    0.120393
    48  H    0.446971
 Sum of Mulliken charges =   0.00000

 Dipole moment (field-independent basis, Debye):
    X=              0.0000    Y=             -0.0000    Z=             -0.0002  Tot=              0.0002
 Quadrupole moment (field-independent basis, Debye-Ang):
   XX=           -150.9007   YY=           -139.8895   ZZ=           -175.4284
   XY=             18.3941   XZ=              0.0977   YZ=              4.8053

  Exact polarizability:     289.119     -26.452     795.440       7.280      -2.694     159.685
 Approx polarizability:     528.119     -14.343     901.072      16.350      -0.782     254.706

                      1                      2                      3
                      A                      A                      A
 Frequencies --      9.5829                15.2141                23.6860
 Red. masses --      6.0143                 4.4997                 5.0674
 Frc consts  --      0.0003                 0.0006                 0.0017
 IR Inten    --      0.0617                 1.7714                 0.2864

                      4                      5                      6
                      A                      A                      A
 Frequencies --     24.2042                28.2403                43.4577
 Red. masses --      5.0116                 4.0997                 5.0278
 Frc consts  --      0.0017                 0.0019                 0.0056
 IR Inten    --      0.0000                 0.0000                 0.0000

                      7                      8                      9
                      A                      A                      A
 Frequencies --     52.0204                62.4627                64.2256
 Red. masses --      5.2966                 5.5800                 5.9780
 Frc consts  --      0.0084                 0.0128                 0.0145
 IR Inten    --      8.4446                 0.3118                 0.0000

                     10                     11                     12
                      A                      A                      A
 Frequencies --    110.2089               119.3724               132.1575
 Red. masses --      5.7129                 6.7159                 5.6167
 Frc consts  --      0.0409                 0.0564                 0.0578
 IR Inten    --      0.0000                 0.0000                 1.5577

                     13                     14                     15
                      A                      A                      A
 Frequencies --    162.4882               182.2223               203.2170
 Red. masses --      5.6356                 5.0542                 5.2815
 Frc consts  --      0.0877                 0.0989                 0.1285
 IR Inten    --      3.1541                 0.0000                 0.0000

                     16                     17                     18
                      A                      A                      A
 Frequencies --    204.3471               234.2883               329.0887
 Red. masses --      6.3766                 5.9536                 6.4355
 Frc consts  --      0.1569                 0.1925                 0.4106
 IR Inten    --     16.1510                 0.4043                12.7432

                     19                     20                     21
                      A                      A                      A
 Frequencies --    343.8042               371.3321               371.7973
 Red. masses --      6.2942                 3.2329                 3.0040
 Frc consts  --      0.4383                 0.2626                 0.2447
 IR Inten    --      0.0000                 0.0000                 0.6413

                     22                     23                     24
                      A                      A                      A
 Frequencies --    384.3365               400.3155               410.7939
 Red. masses --      5.5989                 6.1286                 2.8753
 Frc consts  --      0.4873                 0.5787                 0.2859
 IR Inten    --      0.0000                 0.0000                 1.4712

                     25                     26                     27
                      A                      A                      A
 Frequencies --    411.6300               415.5881               434.9630
 Red. masses --      2.9838                 3.0539                 5.4102
 Frc consts  --      0.2979                 0.3108                 0.6031
 IR Inten    --      0.0000                 0.6850                 8.0293

                     28                     29                     30
                      A                      A                      A
 Frequencies --    445.0781               451.7576               480.9004
 Red. masses --      5.0741                 4.0216                 4.7614
 Frc consts  --      0.5922                 0.4836                 0.6488
 IR Inten    --      4.5436                 0.0000                 8.4932

                     31                     32                     33
                      A                      A                      A
 Frequencies --    490.6719               515.1507               524.8606
 Red. masses --      4.5736                 5.7377                 2.4647
 Frc consts  --      0.6488                 0.8971                 0.4000
 IR Inten    --      0.0000                 0.0000                15.6584

                     34                     35                     36
                      A                      A                      A
 Frequencies --    549.3136               625.7320               632.4328
 Red. masses --      5.1642                 6.0857                 6.4324
 Frc consts  --      0.9181                 1.4039                 1.5158
 IR Inten    --      0.9572                 0.0000                 2.2435

                     37                     38                     39
                      A                      A                      A
 Frequencies --    633.0492               656.1421               694.0097
 Red. masses --      6.3881                 6.7025                 5.6971
 Frc consts  --      1.5083                 1.7001                 1.6167
 IR Inten    --      0.0000                 0.0000                82.5230

                     40                     41                     42
                      A                      A                      A
 Frequencies --    698.7450               699.3645               713.7595
 Red. masses --      2.4290                 2.3973                 1.9584
 Frc consts  --      0.6987                 0.6909                 0.5878
 IR Inten    --      0.0000                35.8187                 0.0000

                     43                     44                     45
                      A                      A                      A
 Frequencies --    714.8795               718.0100               725.8691
 Red. masses --      1.7404                 3.4730                 4.4135
 Frc consts  --      0.5240                 1.0549                 1.3701
 IR Inten    --     43.9917                 0.0000                 0.0000

                     46                     47                     48
                      A                      A                      A
 Frequencies --    751.6644               751.9654               794.6984
 Red. masses --      1.2459                 1.2432                 4.4758
 Frc consts  --      0.4147                 0.4142                 1.6654
 IR Inten    --    151.6378                 0.0035                12.8398

                     49                     50                     51
                      A                      A                      A
 Frequencies --    800.2231               811.3840               816.8006
 Red. masses --      1.3451                 1.7618                 1.9726
 Frc consts  --      0.5075                 0.6834                 0.7754
 IR Inten    --      0.0000                54.0039                 0.0000

                     52                     53                     54
                      A                      A                      A
 Frequencies --    830.1091               834.5383               836.6931
 Red. masses --      1.9930                 1.6240                 1.7566
 Frc consts  --      0.8092                 0.6664                 0.7245
 IR Inten    --     30.3594                 0.0000               127.3171

                     55                     56                     57
                      A                      A                      A
 Frequencies --    846.0267               857.1369               857.2180
 Red. masses --      5.4738                 1.2515                 1.2591
 Frc consts  --      2.3084                 0.5417                 0.5451
 IR Inten    --      0.0000                 0.9409                 0.0000

                     58                     59                     60
                      A                      A                      A
 Frequencies --    931.5523               933.2532               940.4614
 Red. masses --      3.0118                 4.0880                 1.5521
 Frc consts  --      1.5399                 2.0978                 0.8088
 IR Inten    --      0.0000                25.5055                 0.0000

                     61                     62                     63
                      A                      A                      A
 Frequencies --    945.6459               945.7776               954.8390
 Red. masses --      1.4998                 1.5222                 1.3610
 Frc consts  --      0.7902                 0.8023                 0.7311
 IR Inten    --      4.0687                 0.0001                 3.4210

                     64                     65                     66
                      A                      A                      A
 Frequencies --    984.8442               985.5797               990.6963
 Red. masses --      1.2643                 1.2568                 1.3561
 Frc consts  --      0.7225                 0.7193                 0.7842
 IR Inten    --     64.0144                 0.0001                 5.1777

                     67                     68                     69
                      A                      A                      A
 Frequencies --    990.7004              1006.2771              1006.2789
 Red. masses --      1.3548                 1.3079                 1.3079
 Frc consts  --      0.7834                 0.7803                 0.7803
 IR Inten    --      0.0537                 0.2254                 0.0272

                     70                     71                     72
                      A                      A                      A
 Frequencies --   1015.5570              1015.5633              1025.0440
 Red. masses --      6.1334                 6.1306                 2.7411
 Frc consts  --      3.7270                 3.7254                 1.6969
 IR Inten    --      0.0000                 1.6986                30.7559

                     73                     74                     75
                      A                      A                      A
 Frequencies --   1038.6771              1038.6971              1064.5030
 Red. masses --      3.9952                 4.1660                 2.1955
 Frc consts  --      2.5395                 2.6482                 1.4658
 IR Inten    --    244.8221                 0.0801               126.1502

                     76                     77                     78
                      A                      A                      A
 Frequencies --   1064.8157              1109.7392              1110.1990
 Red. masses --      2.2030                 1.6229                 1.6270
 Frc consts  --      1.4717                 1.1776                 1.1815
 IR Inten    --      0.0006                 0.0000                12.7051

                     79                     80                     81
                      A                      A                      A
 Frequencies --   1156.4946              1166.0357              1179.5644
 Red. masses --      1.5813                 1.8777                 1.4271
 Frc consts  --      1.2461                 1.5042                 1.1699
 IR Inten    --     36.6507                 0.0000                 9.0576

                     82                     83                     84
                      A                      A                      A
 Frequencies --   1191.6909              1191.8031              1212.3860
 Red. masses --      1.1253                 1.1295                 1.1783
 Frc consts  --      0.9416                 0.9453                 1.0204
 IR Inten    --      0.0000                11.7326                 0.0001

                     85                     86                     87
                      A                      A                      A
 Frequencies --   1212.7209              1216.9232              1249.6942
 Red. masses --      1.1858                 1.1357                 2.0547
 Frc consts  --      1.0275                 0.9909                 1.8907
 IR Inten    --    227.6687                 0.0000                89.6229

                     88                     89                     90
                      A                      A                      A
 Frequencies --   1253.9056              1255.2922              1282.4155
 Red. masses --      3.1894                 2.8252                 1.8564
 Frc consts  --      2.9546                 2.6229                 1.7988
 IR Inten    --      0.0001              1341.1664                 0.0000

                     91                     92                     93
                      A                      A                      A
 Frequencies --   1320.8380              1328.8017              1333.3308
 Red. masses --      1.7082                 5.6149                 3.0952
 Frc consts  --      1.7558                 5.8414                 3.2420
 IR Inten    --   1993.8183                10.7619                 0.0000

                     94                     95                     96
                      A                      A                      A
 Frequencies --   1333.4268              1338.8429              1347.5405
 Red. masses --      3.3675                 1.7911                 1.5550
 Frc consts  --      3.5278                 1.8916                 1.6637
 IR Inten    --      6.7950                 0.0000                 0.0000

                     97                     98                     99
                      A                      A                      A
 Frequencies --   1354.5135              1354.7785              1408.6602
 Red. masses --      1.6759                 1.6692                 2.0405
 Frc consts  --      1.8116                 1.8050                 2.3856
 IR Inten    --      3.6823                 0.0000                40.7125

                    100                    101                    102
                      A                      A                      A
 Frequencies --   1410.1909              1465.3005              1471.7361
 Red. masses --      1.8313                 2.3433                 2.1996
 Frc consts  --      2.1457                 2.9643                 2.8071
 IR Inten    --      0.0000                57.8957                 0.0000

                    103                    104                    105
                      A                      A                      A
 Frequencies --   1472.3441              1508.2554              1508.8989
 Red. masses --      2.3059                 2.6841                 2.5485
 Frc consts  --      2.9451                 3.5974                 3.4187
 IR Inten    --      1.3340               663.2328                 0.0002

                    106                    107                    108
                      A                      A                      A
 Frequencies --   1526.1349              1528.6510              1559.2821
 Red. masses --      2.2878                 2.4460                 2.9623
 Frc consts  --      3.1395                 3.3676                 4.2435
 IR Inten    --    337.6454                 0.0000               160.8201

                    109                    110                    111
                      A                      A                      A
 Frequencies --   1591.2193              1601.8992              1615.6861
 Red. masses --      5.0128                 4.2082                 5.6767
 Frc consts  --      7.4781                 6.3624                 8.7309
 IR Inten    --      0.0000               140.8917                 0.0000

                    112                    113                    114
                      A                      A                      A
 Frequencies --   1631.1271              1636.5070              1639.4828
 Red. masses --      4.0255                 5.3114                 4.7551
 Frc consts  --      6.3103                 8.3809                 7.5305
 IR Inten    --    387.4597                 0.0000               341.2990

                    115                    116                    117
                      A                      A                      A
 Frequencies --   1644.0975              1656.8650              1672.2825
 Red. masses --      4.8485                 5.3827                 3.5128
 Frc consts  --      7.7217                 8.7061                 5.7879
 IR Inten    --      0.0000                 0.0000              2644.3482

                    118                    119                    120
                      A                      A                      A
 Frequencies --   1685.2510              3159.7909              3159.8000
 Red. masses --      3.3126                 1.0857                 1.0857
 Frc consts  --      5.5430                 6.3866                 6.3866
 IR Inten    --      0.0000                 2.1248                 0.0053

                    121                    122                    123
                      A                      A                      A
 Frequencies --   3167.6767              3168.9347              3170.1673
 Red. masses --      1.0886                 1.0892                 1.0890
 Frc consts  --      6.4360                 6.4445                 6.4483
 IR Inten    --     38.3759                 0.0000                17.5767

                    124                    125                    126
                      A                      A                      A
 Frequencies --   3170.2026              3175.2156              3175.7150
 Red. masses --      1.0891                 1.0904                 1.0900
 Frc consts  --      6.4487                 6.4771                 6.4771
 IR Inten    --      0.0010                 8.8910                 0.0002

                    127                    128                    129
                      A                      A                      A
 Frequencies --   3181.6327              3181.6513              3191.0946
 Red. masses --      1.0930                 1.0930                 1.0950
 Frc consts  --      6.5189                 6.5189                 6.5697
 IR Inten    --     51.1679                 0.0943                26.5197

                    130                    131                    132
                      A                      A                      A
 Frequencies --   3191.1158              3194.7710              3195.9717
 Red. masses --      1.0950                 1.0917                 1.0922
 Frc consts  --      6.5699                 6.5652                 6.5732
 IR Inten    --      0.0056                11.9634                 0.0000

                    133                    134                    135
                      A                      A                      A
 Frequencies --   3198.7447              3198.7561              3224.5961
 Red. masses --      1.0938                 1.0939                 1.0910
 Frc consts  --      6.5942                 6.5943                 6.6837
 IR Inten    --     19.1848                 0.7416                 5.3712

                    136                    137                    138
                      A                      A                      A
 Frequencies --   3224.6012              3372.0392              3372.3445
 Red. masses --      1.0910                 1.0792                 1.0792
 Frc consts  --      6.6837                 7.2302                 7.2310
 IR Inten    --      2.9002               269.8163                 0.0549

 - Thermochemistry -
 -------------------
 Temperature   298.150 Kelvin.  Pressure   1.00000 Atm.
 Atom     1 has atomic number  6 and mass  12.00000

 Molecular mass:   368.15248 amu.
 Principal axes and moments of inertia in atomic units:
                           1         2         3
     Eigenvalues --  1425.45761********************
           X           -0.05323   0.99544  -0.07914
           Y            0.99858   0.05334  -0.00077
           Z           -0.00346   0.07907   0.99686
 This molecule is an asymmetric top.
 Rotational symmetry number  1.
 Warning -- assumption of classical behavior for rotation
           may cause significant error
 Rotational temperatures (Kelvin)      0.06076     0.00165     0.00161
 Rotational constants (GHZ):           1.26608     0.03447     0.03360
 Zero-point vibrational energy    1004813.0 (Joules/Mol)
                                  240.15608 (Kcal/Mol)
 Warning -- explicit consideration of  34 degrees of freedom as
           vibrations may cause significant error
 Vibrational temperatures:     13.79    21.89    34.08    34.82    40.63
          (Kelvin)             62.53    74.85    89.87    92.41   158.57
                              171.75   190.15   233.78   262.18   292.38
                              294.01   337.09   473.49   494.66   534.26
                              534.93   552.97   575.96   591.04   592.24
                              597.94   625.81   640.37   649.98   691.91
                              705.97   741.19   755.16   790.34   900.29
                              909.93   910.82   944.04   998.53  1005.34
                             1006.23  1026.94  1028.55  1033.06  1044.36
                             1081.48  1081.91  1143.39  1151.34  1167.40
                             1175.19  1194.34  1200.71  1203.81  1217.24
                             1233.23  1233.35  1340.30  1342.74  1353.11
                             1360.57  1360.76  1373.80  1416.97  1418.03
                             1425.39  1425.40  1447.81  1447.81  1461.16
                             1461.17  1474.81  1494.42  1494.45  1531.58
                             1532.03  1596.67  1597.33  1663.94  1677.67
                             1697.13  1714.58  1714.74  1744.35  1744.83
                             1750.88  1798.03  1804.09  1806.09  1845.11
                             1900.39  1911.85  1918.37  1918.50  1926.30
                             1938.81  1948.84  1949.22  2026.75  2028.95
                             2108.24  2117.50  2118.37  2170.04  2170.97
                             2195.77  2199.39  2243.46  2289.41  2304.78
                             2324.61  2346.83  2354.57  2358.85  2365.49
                             2383.86  2406.04  2424.70  4546.23  4546.25
                             4557.58  4559.39  4561.16  4561.21  4568.43
                             4569.15  4577.66  4577.69  4591.27  4591.30
                             4596.56  4598.29  4602.28  4602.30  4639.47
                             4639.48  4851.61  4852.05

 Zero-point correction=                           0.382713 (Hartree/Particle)
 Thermal correction to Energy=                    0.406440
 Thermal correction to Enthalpy=                  0.407384
 Thermal correction to Gibbs Free Energy=         0.323540
 Sum of electronic and zero-point Energies=          -1186.532391
 Sum of electronic and thermal Energies=             -1186.508665
 Sum of electronic and thermal Enthalpies=           -1186.507721
 Sum of electronic and thermal Free Energies=        -1186.591564

                     E (Thermal)             CV                S
                      KCal/Mol        Cal/Mol-Kelvin    Cal/Mol-Kelvin
 Total                  255.045             92.178            176.464
 Electronic               0.000              0.000              0.000
 Translational            0.889              2.981             43.603
 Rotational               0.889              2.981             36.637
 Vibrational            253.267             86.217             96.224
 Vibration     1          0.593              1.987              8.096
 Vibration     2          0.593              1.986              7.177
 Vibration     3          0.593              1.985              6.298
 Vibration     4          0.593              1.985              6.255
 Vibration     5          0.593              1.984              5.949
 Vibration     6          0.595              1.980              5.095
 Vibration     7          0.596              1.977              4.739
 Vibration     8          0.597              1.972              4.378
 Vibration     9          0.597              1.971              4.323
 Vibration    10          0.606              1.941              3.265
 Vibration    11          0.609              1.933              3.111
 Vibration    12          0.612              1.921              2.914
 Vibration    13          0.623              1.888              2.521
 Vibration    14          0.630              1.864              2.306
 Vibration    15          0.639              1.835              2.104
 Vibration    16          0.640              1.834              2.094
 Vibration    17          0.654              1.788              1.846
 Vibration    18          0.712              1.617              1.265
 Vibration    19          0.723              1.588              1.194
 Vibration    20          0.743              1.531              1.074
 Vibration    21          0.743              1.530              1.072
 Vibration    22          0.753              1.504              1.022
 Vibration    23          0.766              1.469              0.961
 Vibration    24          0.775              1.447              0.924
 Vibration    25          0.776              1.445              0.921
 Vibration    26          0.779              1.436              0.907
 Vibration    27          0.796              1.394              0.843
 Vibration    28          0.804              1.372              0.811
 Vibration    29          0.810              1.357              0.790
 Vibration    30          0.837              1.292              0.708
 Vibration    31          0.846              1.271              0.682
 Vibration    32          0.870              1.216              0.621
 Vibration    33          0.880              1.195              0.599
 Vibration    34          0.905              1.141              0.546

 Optimization completed.
    -- Stationary point found.
 Normal termination of Gaussian 16 at Sat Oct 17 09:07:32 2020.
