 Gaussian 16, Revision C.01,
 Gaussian 16:  ES64L-G16RevC.01  3-Jul-2019

 --------------------------------------------------------------------
 #P B3LYP/6-311++G(d,p) EmpiricalDispersion=GD3 freq(noraman) SCF=YQC
 --------------------------------------------------------------------

 --------------------------------------------------
 Restart from 2_Phenyl_Aldehyde_Benzobisoxazole.log
 --------------------------------------------------
 Symbolic Z-matrix:
 Charge =  0 Multiplicity = 1

                         Standard orientation:
 ---------------------------------------------------------------------
 Center     Atomic      Atomic             Coordinates (Angstroms)
 Number     Number       Type             X           Y           Z
 ---------------------------------------------------------------------
      1          6           0       -0.000155    1.400274    0.000001
      2          6           0        0.000155   -1.400274    0.000001
      3          6           0       -1.212029    0.693313    0.000002
      4          6           0        1.212029   -0.693313    0.000002
      5          6           0       -1.212029   -0.692369    0.000004
      6          6           0        1.212029    0.692369    0.000004
      7          1           0        2.148637    1.234672    0.000008
      8          1           0       -2.148637   -1.234672    0.000008
      9          1           0        2.143084   -1.245626   -0.000002
     10          1           0       -2.143084    1.245626   -0.000002
     11          1           0        1.670314    8.084420    0.000140
     12          6           0        1.066591    7.184555    0.000079
     13          6           0       -0.335058    7.297851   -0.000072
     14          1           0       -0.781467    8.285380   -0.000125
     15          6           0       -1.158866    6.175623   -0.000152
     16          1           0       -2.238521    6.257706   -0.000269
     17          6           0       -0.537207    4.925609   -0.000080
     18          7           0       -1.059203    3.637017   -0.000130
     19          6           0        0.861024    4.841032    0.000067
     20          8           0        1.192570    3.511253    0.000120
     21          6           0        1.700461    5.941141    0.000152
     22          1           0        2.778108    5.841158    0.000270
     23          6           0       -0.022873    2.856231   -0.000012
     24          1           0       -1.670314   -8.084420    0.000140
     25          6           0       -1.066591   -7.184555    0.000079
     26          6           0        0.335058   -7.297851   -0.000072
     27          1           0        0.781467   -8.285380   -0.000125
     28          6           0        1.158866   -6.175623   -0.000152
     29          1           0        2.238521   -6.257706   -0.000269
     30          6           0        0.537207   -4.925609   -0.000080
     31          7           0        1.059203   -3.637017   -0.000130
     32          6           0       -0.861024   -4.841032    0.000067
     33          8           0       -1.192570   -3.511253    0.000120
     34          6           0       -1.700461   -5.941141    0.000152
     35          1           0       -2.778108   -5.841158    0.000270
     36          6           0        0.022873   -2.856231   -0.000012
 ---------------------------------------------------------------------

 SCF Done:  E(RB3LYP) =  -1029.61524478     a.u. after    7 cycles
 SCF Done:  E(RB3LYP) =  -1029.61525600     A.U. after    9 cycles

 The electronic state is 1-A.
 Alpha  occ. eigenvalues --  -19.20806 -19.20806 -14.32456 -14.32455 -10.28428
 Alpha  occ. eigenvalues --  -10.28428 -10.24575 -10.24575 -10.21648 -10.21648
 Alpha  occ. eigenvalues --  -10.21342 -10.21340 -10.19778 -10.19776 -10.19629
 Alpha  occ. eigenvalues --  -10.19628 -10.19547 -10.19547 -10.19128 -10.19128
 Alpha  occ. eigenvalues --  -10.19011 -10.19011 -10.18726 -10.18726  -1.14368
 Alpha  occ. eigenvalues --   -1.14366  -0.94399  -0.94364  -0.89271  -0.87287
 Alpha  occ. eigenvalues --   -0.86570  -0.81428  -0.77422  -0.77176  -0.76551
 Alpha  occ. eigenvalues --   -0.76463  -0.74147  -0.68765  -0.65209  -0.64689
 Alpha  occ. eigenvalues --   -0.63012  -0.62107  -0.61348  -0.61138  -0.59318
 Alpha  occ. eigenvalues --   -0.55111  -0.53906  -0.52658  -0.52516  -0.51513
 Alpha  occ. eigenvalues --   -0.50636  -0.49406  -0.49292  -0.47141  -0.46629
 Alpha  occ. eigenvalues --   -0.46436  -0.45835  -0.45792  -0.44531  -0.43906
 Alpha  occ. eigenvalues --   -0.42634  -0.42027  -0.40302  -0.39130  -0.38693
 Alpha  occ. eigenvalues --   -0.38654  -0.37563  -0.37296  -0.37057  -0.36960
 Alpha  occ. eigenvalues --   -0.36251  -0.35558  -0.34282  -0.30662  -0.30594
 Alpha  occ. eigenvalues --   -0.29995  -0.27904  -0.26119  -0.26041  -0.25452
 Alpha  occ. eigenvalues --   -0.22926
 Alpha virt. eigenvalues --   -0.09038  -0.03863  -0.03241  -0.02021  -0.01374
 Alpha virt. eigenvalues --   -0.00867  -0.00617  -0.00509   0.00004   0.00636
 Alpha virt. eigenvalues --    0.01076   0.01485   0.01562   0.02040   0.03054

 Mulliken charges:
               1
     1  C    0.671159
     2  C    0.671159
     3  C   -0.709549
     4  C   -0.709549
     5  C   -0.545644
     6  C   -0.545644
     7  H    0.191072
     8  H    0.191072
     9  H    0.204381
    10  H    0.204381
    11  H    0.172837
    12  C   -0.212661
    13  C   -0.230993
    14  H    0.169730
    15  C   -0.369558
    16  H    0.178000
    17  C    0.282998
    18  N    0.079064
    19  C    0.704108
    20  O   -0.074616
    21  C   -0.429299
    22  H    0.168469
    23  C   -0.249498
    24  H    0.172837
    25  C   -0.212661
    26  C   -0.230993
    27  H    0.169730
    28  C   -0.369558
    29  H    0.178000
    30  C    0.282998
    31  N    0.079064
    32  C    0.704108
    33  O   -0.074616
    34  C   -0.429299
    35  H    0.168469
    36  C   -0.249498
 Sum of Mulliken charges =  -0.00000

 Dipole moment (field-independent basis, Debye):
    X=             -0.0000    Y=              0.0000    Z=              0.0002  Tot=              0.0002
 Quadrupole moment (field-independent basis, Debye-Ang):
   XX=           -128.7388   YY=           -107.9982   ZZ=           -144.2419
   XY=              9.0176   XZ=             -0.0000   YZ=              0.0000

  Exact polarizability:     232.787       9.466     581.491      -0.000      -0.000     122.499
 Approx polarizability:     441.110      -7.990     731.985      -0.000       0.000     197.336

                      1                      2                      3
                      A                      A                      B
 Frequencies --     23.2335                30.2378                50.1145
 Red. masses --      6.2307                 5.1331                 6.0130
 Frc consts  --      0.0020                 0.0028                 0.0089
 IR Inten    --      0.3914                 0.5388                 0.4848

                      4                      5                      6
                      B                      B                      A
 Frequencies --     59.6693                67.3497               122.8732
 Red. masses --      3.8699                 7.1215                 6.0157
 Frc consts  --      0.0081                 0.0190                 0.0535
 IR Inten    --      0.0000                 0.0000                 0.0000

                      7                      8                      9
                      A                      A                      B
 Frequencies --    130.9431               179.8319               228.1087
 Red. masses --      6.6590                 8.4184                 6.2426
 Frc consts  --      0.0673                 0.1604                 0.1914
 IR Inten    --      2.8300                 0.0000                 0.0000

                     10                     11                     12
                      A                      B                      B
 Frequencies --    258.2145               259.0121               294.9154
 Red. masses --      6.3346                 6.3217                 6.1730
 Frc consts  --      0.2488                 0.2499                 0.3163
 IR Inten    --      0.7562                 0.0000                 5.4780

                     13                     14                     15
                      A                      A                      B
 Frequencies --    307.3727               371.7353               382.1864
 Red. masses --      6.3184                 4.6513                 5.4662
 Frc consts  --      0.3517                 0.3787                 0.4704
 IR Inten    --      0.0383                 0.0000                 0.0000

                     16                     17                     18
                      B                      A                      A
 Frequencies --    397.6755               412.8798               429.9014
 Red. masses --      6.6570                 2.9559                 2.9905
 Frc consts  --      0.6203                 0.2969                 0.3256
 IR Inten    --      2.5411                 0.0412                 5.9752

                     19                     20                     21
                      B                      A                      B
 Frequencies --    439.8389               523.3067               536.2245
 Red. masses --      3.3668                 3.2539                 8.1253
 Frc consts  --      0.3838                 0.5250                 1.3765
 IR Inten    --      0.0000                14.9582                 1.1032

                     22                     23                     24
                      A                      A                      B
 Frequencies --    562.1954               565.9307               582.7374
 Red. masses --      8.0473                 6.5832                 3.9445
 Frc consts  --      1.4986                 1.2423                 0.7892
 IR Inten    --      0.0000                 0.0000                 0.0000

                     25                     26                     27
                      A                      B                      A
 Frequencies --    583.6241               606.9905               631.7680
 Red. masses --      3.9014                 7.6496                 7.0024
 Frc consts  --      0.7830                 1.6606                 1.6467
 IR Inten    --      0.0342                 2.1681                 0.0000

                     28                     29                     30
                      B                      A                      B
 Frequencies --    636.1685               651.8262               701.1185
 Red. masses --      7.0055                 7.1006                 5.2797
 Frc consts  --      1.6704                 1.7775                 1.5291
 IR Inten    --      7.3244                 0.0000                 0.0000

                     31                     32                     33
                      A                      A                      B
 Frequencies --    719.7809               735.2633               751.1897
 Red. masses --      3.7755                 6.6896                 1.5170
 Frc consts  --      1.1524                 2.1308                 0.5043
 IR Inten    --      2.1253                 0.0000                 0.0000

                     34                     35                     36
                      A                      B                      A
 Frequencies --    753.2418               757.3355               763.1331
 Red. masses --      1.9100                 4.7970                 2.5019
 Frc consts  --      0.6385                 1.6211                 0.8585
 IR Inten    --    107.8522                 0.0000                89.7132

                     37                     38                     39
                      B                      B                      A
 Frequencies --    770.9954               822.4214               833.3065
 Red. masses --      3.8914                 5.5944                 5.9009
 Frc consts  --      1.3629                 2.2294                 2.4142
 IR Inten    --      0.0000                47.6360                 0.0000

                     40                     41                     42
                      B                      A                      B
 Frequencies --    857.9351               858.0175               859.3740
 Red. masses --      1.3870                 1.3981                 1.2581
 Frc consts  --      0.6015                 0.6064                 0.5474
 IR Inten    --      0.0000                 0.0034                 0.0000

                     43                     44                     45
                      A                      B                      A
 Frequencies --    872.5994               905.6022               906.6156
 Red. masses --      1.7079                 6.9570                 6.9073
 Frc consts  --      0.7662                 3.3616                 3.3450
 IR Inten    --     32.7605                 5.6633                 0.0000

                     46                     47                     48
                      B                      A                      B
 Frequencies --    937.0455               939.8693               943.5746
 Red. masses --     11.7021                11.9578                 1.3691
 Frc consts  --      6.0539                 6.2235                 0.7182
 IR Inten    --     18.3287                 0.0000                 0.0000

                     49                     50                     51
                      A                      A                      B
 Frequencies --    943.6967               976.6403               976.7320
 Red. masses --      1.3700                 1.2632                 1.2637
 Frc consts  --      0.7189                 0.7099                 0.7103
 IR Inten    --      5.1899                 0.0082                 0.0000

                     52                     53                     54
                      B                      A                      B
 Frequencies --    992.0134              1002.9652              1021.9637
 Red. masses --      1.3017                 1.3571                 2.0444
 Frc consts  --      0.7547                 0.8043                 1.2580
 IR Inten    --      0.0000                 0.0342                15.3090

                     55                     56                     57
                      A                      B                      A
 Frequencies --   1022.0243              1030.2720              1060.5778
 Red. masses --      2.0364                 4.0553                 8.6663
 Frc consts  --      1.2532                 2.5362                 5.7434
 IR Inten    --      0.0000                57.4700                 0.0000

                     58                     59                     60
                      B                      A                      B
 Frequencies --   1074.9828              1131.2402              1131.9050
 Red. masses --      3.1974                 1.5511                 1.5264
 Frc consts  --      2.1769                 1.1695                 1.1523
 IR Inten    --     95.0247                 0.0000                15.7042

                     61                     62                     63
                      B                      A                      B
 Frequencies --   1152.4747              1174.3801              1175.0563
 Red. masses --      1.3940                 1.2752                 1.2452
 Frc consts  --      1.0909                 1.0362                 1.0130
 IR Inten    --      4.7777                 0.0000                 1.3089

                     64                     65                     66
                      A                      B                      A
 Frequencies --   1208.9687              1216.1527              1222.4000
 Red. masses --      1.8139                 3.3340                 1.6441
 Frc consts  --      1.5621                 2.9053                 1.4474
 IR Inten    --      0.0000                38.0306                 0.0000

                     67                     68                     69
                      B                      A                      B
 Frequencies --   1263.6721              1265.0108              1300.2677
 Red. masses --      4.0815                 3.8804                 2.8852
 Frc consts  --      3.8401                 3.6586                 2.8741
 IR Inten    --    144.0147                 0.0000                16.5290

                     70                     71                     72
                      A                      B                      A
 Frequencies --   1307.0218              1312.7282              1315.8364
 Red. masses --      1.9793                 1.9874                 3.1140
 Frc consts  --      1.9922                 2.0178                 3.1767
 IR Inten    --      0.0000                19.7537                 0.0000

                     73                     74                     75
                      A                      B                      B
 Frequencies --   1345.7611              1346.5590              1378.8272
 Red. masses --      1.5439                 8.4060                 5.1003
 Frc consts  --      1.6474                 8.9803                 5.7131
 IR Inten    --      0.0000                10.6488                34.1742

                     76                     77                     78
                      A                      B                      A
 Frequencies --   1380.5614              1445.4459              1472.6006
 Red. masses --      5.0946                 2.8643                 2.5025
 Frc consts  --      5.7210                 3.5259                 3.1974
 IR Inten    --      0.0000                59.3267                 0.0000

                     79                     80                     81
                      B                      B                      A
 Frequencies --   1473.9472              1505.6619              1505.7782
 Red. masses --      2.5405                 2.6308                 2.6389
 Frc consts  --      3.2519                 3.5140                 3.5254
 IR Inten    --     34.1247                 6.6966                 0.0000

                     82                     83                     84
                      B                      A                      B
 Frequencies --   1528.1574              1569.2671              1599.5827
 Red. masses --      2.6774                 8.8574                 7.2785
 Frc consts  --      3.6838                12.8514                10.9725
 IR Inten    --    107.4732                 0.0000               118.4777

                     85                     86                     87
                      A                      A                      B
 Frequencies --   1605.4140              1639.5491              1642.7589
 Red. masses --      7.4450                 7.1853                 7.4470
 Frc consts  --     11.3055                11.3800                11.8407
 IR Inten    --      0.0000                 0.0000                14.2812

                     88                     89                     90
                      A                      B                      A
 Frequencies --   1650.1736              1652.6710              1655.6230
 Red. masses --      6.2366                 7.6292                 6.6460
 Frc consts  --     10.0060                12.2773                10.7333
 IR Inten    --      0.0000                25.3866                 0.0000

                     91                     92                     93
                      B                      A                      B
 Frequencies --   3170.0752              3170.0801              3184.4661
 Red. masses --      1.0868                 1.0868                 1.0908
 Frc consts  --      6.4351                 6.4352                 6.5171
 IR Inten    --      5.8516                 0.0000                18.9763

                     94                     95                     96
                      A                      B                      A
 Frequencies --   3184.4722              3193.1882              3194.1628
 Red. masses --      1.0908                 1.0890                 1.0883
 Frc consts  --      6.5171                 6.5421                 6.5420
 IR Inten    --      0.0000                 1.7881                 0.0000

                     97                     98                     99
                      B                      A                      B
 Frequencies --   3198.6723              3198.6768              3203.2913
 Red. masses --      1.0945                 1.0945                 1.0961
 Frc consts  --      6.5981                 6.5981                 6.6268
 IR Inten    --     18.1054                 0.0000                18.2850

                    100                    101                    102
                      A                      B                      A
 Frequencies --   3203.3308              3207.4245              3208.7763
 Red. masses --      1.0961                 1.0945                 1.0957
 Frc consts  --      6.6270                 6.6341                 6.6469
 IR Inten    --      0.0000                 1.7762                 0.0000

 - Thermochemistry -
 -------------------
 Temperature   298.150 Kelvin.  Pressure   1.00000 Atm.
 Atom     1 has atomic number  6 and mass  12.00000

 Molecular mass:   312.08988 amu.
 Principal axes and moments of inertia in atomic units:
                           1         2         3
     Eigenvalues --  1225.75270********************
           X            0.04212   0.99911   0.00000
           Y            0.99911  -0.04212   0.00000
           Z            0.00000   0.00000   1.00000
 This molecule is an asymmetric top.
 Rotational symmetry number  2.
 Warning -- assumption of classical behavior for rotation
           may cause significant error
 Rotational temperatures (Kelvin)      0.07066     0.00352     0.00335
 Rotational constants (GHZ):           1.47235     0.07334     0.06986
 Zero-point vibrational energy     711833.2 (Joules/Mol)
                                  170.13223 (Kcal/Mol)
 Warning -- explicit consideration of  26 degrees of freedom as
           vibrations may cause significant error
 Vibrational temperatures:     33.43    43.51    72.10    85.85    96.90
          (Kelvin)            176.79   188.40   258.74   328.20   371.51
                              372.66   424.32   442.24   534.84   549.88
                              572.17   594.04   618.53   632.83   752.92
                              771.51   808.87   814.25   838.43   839.70
                              873.32   908.97   915.30   937.83  1008.75
                             1035.60  1057.88  1080.79  1083.75  1089.64
                             1097.98  1109.29  1183.28  1198.94  1234.38
                             1234.50  1236.45  1255.48  1302.96  1304.42
                             1348.20  1352.26  1357.59  1357.77  1405.17
                             1405.30  1427.29  1443.04  1470.38  1470.47
                             1482.33  1525.93  1546.66  1627.60  1628.56
                             1658.15  1689.67  1690.64  1739.44  1749.77
                             1758.76  1818.14  1820.07  1870.80  1880.51
                             1888.72  1893.20  1936.25  1937.40  1983.82
                             1986.32  2079.67  2118.74  2120.68  2166.31
                             2166.48  2198.68  2257.83  2301.44  2309.83
                             2358.95  2363.56  2374.23  2377.83  2382.07
                             4561.03  4561.04  4581.74  4581.75  4594.29
                             4595.69  4602.18  4602.18  4608.82  4608.88
                             4614.77  4616.71

 Zero-point correction=                           0.271123 (Hartree/Particle)
 Thermal correction to Energy=                    0.288020
 Thermal correction to Enthalpy=                  0.288964
 Thermal correction to Gibbs Free Energy=         0.225012
 Sum of electronic and zero-point Energies=          -1029.344133
 Sum of electronic and thermal Energies=             -1029.327236
 Sum of electronic and thermal Enthalpies=           -1029.326292
 Sum of electronic and thermal Free Energies=        -1029.390244

                     E (Thermal)             CV                S
                      KCal/Mol        Cal/Mol-Kelvin    Cal/Mol-Kelvin
 Total                  180.735             68.973            134.598
 Electronic               0.000              0.000              0.000
 Translational            0.889              2.981             43.111
 Rotational               0.889              2.981             33.632
 Vibrational            178.958             63.011             57.856
 Vibration     1          0.593              1.985              6.337
 Vibration     2          0.594              1.984              5.814
 Vibration     3          0.595              1.978              4.813
 Vibration     4          0.597              1.974              4.468
 Vibration     5          0.598              1.970              4.229
 Vibration     6          0.610              1.930              3.055
 Vibration     7          0.612              1.922              2.932
 Vibration     8          0.629              1.867              2.330
 Vibration     9          0.651              1.798              1.894
 Vibration    10          0.667              1.749              1.674
 Vibration    11          0.668              1.748              1.668
 Vibration    12          0.689              1.683              1.446
 Vibration    13          0.697              1.660              1.376
 Vibration    14          0.743              1.530              1.073
 Vibration    15          0.752              1.508              1.030
 Vibration    16          0.764              1.475              0.971
 Vibration    17          0.777              1.442              0.916
 Vibration    18          0.791              1.405              0.859
 Vibration    19          0.800              1.383              0.827
 Vibration    20          0.878              1.198              0.602
 Vibration    21          0.891              1.170              0.573
 Vibration    22          0.918              1.113              0.519
 Vibration    23          0.922              1.105              0.512
 Vibration    24          0.940              1.069              0.480
 Vibration    25          0.941              1.067              0.479
 Vibration    26          0.966              1.017              0.438

 Optimization completed.
    -- Stationary point found.
 Normal termination of Gaussian 16 at Sun Aug  2 08:12:59 2020.
