 Gaussian 16, Revision C.01,
 Gaussian 16:  ES64L-G16RevC.01  3-Jul-2019

 ----------------------------------------------------------------------
 #P B3LYP/6-311++G(d,p) EmpiricalDispersion=GD3 freq(noraman) SCF=YQC N
 oSymm
 ----------------------------------------------------------------------

 ------------------------------------------
 Restart from F_Ketoenamine_Ketoenamine.log
 ------------------------------------------
 Symbolic Z-matrix:
 Charge =  0 Multiplicity = 1

                          Input orientation:
 ---------------------------------------------------------------------
 Center     Atomic      Atomic             Coordinates (Angstroms)
 Number     Number       Type             X           Y           Z
 ---------------------------------------------------------------------
      1          9           0        1.322884   -2.241851    0.782218
      2          6           0        0.693531   -1.133954    0.370071
      3          6           0       -0.693039   -1.100724    0.437309
      4          9           0       -1.332885   -2.191111    0.899900
      5          6           0       -1.421676    0.028969    0.070193
      6          6           0       -0.693530    1.133913   -0.370029
      7          9           0       -1.322884    2.241810   -0.782174
      8          6           0        0.693040    1.100683   -0.437266
      9          9           0        1.332886    2.191070   -0.899856
     10          6           0        1.421677   -0.029010   -0.070151
     11          6           0       -2.928693    0.095376    0.185197
     12          8           0       -3.431144    1.068631    0.762440
     13          6           0       -3.688224   -0.969480   -0.407431
     14          6           0       -5.060985   -0.988800   -0.382303
     15          1           0       -3.172080   -1.782370   -0.896686
     16          7           0       -5.828130   -0.041316    0.187652
     17          1           0       -5.585339   -1.807479   -0.861207
     18          6           0       -7.231412   -0.009589    0.266886
     19          1           0       -5.297906    0.735194    0.587772
     20          6           0       -8.031353   -1.133514    0.026018
     21          6           0       -7.839082    1.203077    0.619443
     22          6           0       -9.416763   -1.030490    0.116682
     23          1           0       -7.585365   -2.091354   -0.210022
     24          6           0      -10.022064    0.177052    0.460527
     25          1           0      -10.024971   -1.907992   -0.071209
     26          6           0       -9.222924    1.290988    0.716823
     27          1           0       -7.220922    2.074349    0.807688
     28          1           0      -11.100590    0.247313    0.534180
     29          1           0       -9.677495    2.236484    0.989455
     30          6           0        2.928693   -0.095415   -0.185154
     31          8           0        3.431145   -1.068649   -0.762433
     32          6           0        3.688220    0.969471    0.407426
     33          6           0        5.060980    0.988808    0.382280
     34          1           0        3.172072    1.782375    0.896654
     35          7           0        5.828131    0.041306   -0.187639
     36          1           0        5.585329    1.807515    0.861141
     37          6           0        7.231413    0.009596   -0.266890
     38          1           0        5.297913   -0.735234   -0.587708
     39          6           0        8.031341    1.133546   -0.026094
     40          6           0        7.839096   -1.203079   -0.619389
     41          6           0        9.416751    1.030538   -0.116771
     42          1           0        7.585342    2.091392    0.209900
     43          6           0       10.022065   -0.177014   -0.460558
     44          1           0       10.024949    1.908059    0.071065
     45          6           0        9.222938   -1.290976   -0.716782
     46          1           0        7.220946   -2.074371   -0.807578
     47          1           0       11.100591   -0.247263   -0.534221
     48          1           0        9.677519   -2.236480   -0.989369
 ---------------------------------------------------------------------

 SCF Done:  E(RB3LYP) =  -1583.95705671     a.u. after    8 cycles
 SCF Done:  E(RB3LYP) =  -1583.95707714     A.U. after   10 cycles

 Alpha  occ. eigenvalues --  -24.71397 -24.71397 -24.70921 -24.70921 -19.11596
 Alpha  occ. eigenvalues --  -19.11596 -14.37399 -14.37399 -10.29188 -10.29187
 Alpha  occ. eigenvalues --  -10.29124 -10.29123 -10.27493 -10.27493 -10.25017
 Alpha  occ. eigenvalues --  -10.25017 -10.24107 -10.24107 -10.22342 -10.22340
 Alpha  occ. eigenvalues --  -10.19439 -10.19439 -10.19379 -10.19379 -10.19299
 Alpha  occ. eigenvalues --  -10.19299 -10.19236 -10.19236 -10.18685 -10.18685
 Alpha  occ. eigenvalues --  -10.17960 -10.17960  -1.26140  -1.26075  -1.24630
 Alpha  occ. eigenvalues --   -1.24586  -1.04875  -1.04861  -0.98627  -0.98625
 Alpha  occ. eigenvalues --   -0.90813  -0.87327  -0.87326  -0.82131  -0.80391
 Alpha  occ. eigenvalues --   -0.79716  -0.78107  -0.76979  -0.76972  -0.75579
 Alpha  occ. eigenvalues --   -0.74747  -0.71097  -0.67568  -0.66620  -0.65655
 Alpha  occ. eigenvalues --   -0.63943  -0.63691  -0.62149  -0.62073  -0.60350
 Alpha  occ. eigenvalues --   -0.59404  -0.58610  -0.56870  -0.56736  -0.56619
 Alpha  occ. eigenvalues --   -0.55976  -0.54722  -0.52125  -0.51710  -0.51414
 Alpha  occ. eigenvalues --   -0.51305  -0.50421  -0.50271  -0.50117  -0.48230
 Alpha  occ. eigenvalues --   -0.48149  -0.47413  -0.47026  -0.46537  -0.46451
 Alpha  occ. eigenvalues --   -0.45926  -0.45862  -0.44568  -0.44474  -0.44448
 Alpha  occ. eigenvalues --   -0.43819  -0.43748  -0.43270  -0.43213  -0.43173
 Alpha  occ. eigenvalues --   -0.41928  -0.41868  -0.40705  -0.40142  -0.39971
 Alpha  occ. eigenvalues --   -0.39464  -0.38148  -0.38144  -0.37060  -0.36868
 Alpha  occ. eigenvalues --   -0.36616  -0.36377  -0.35881  -0.28782  -0.28609
 Alpha  occ. eigenvalues --   -0.28596  -0.27573  -0.27564  -0.27409  -0.26909
 Alpha  occ. eigenvalues --   -0.26185  -0.22695  -0.22540
 Alpha virt. eigenvalues --   -0.09242  -0.07381  -0.03789  -0.03241  -0.03145
 Alpha virt. eigenvalues --   -0.02234  -0.01815  -0.01280  -0.01171  -0.00973
 Alpha virt. eigenvalues --   -0.00424  -0.00195   0.00100   0.00820   0.01170

 Mulliken charges:
               1
     1  F   -0.174091
     2  C   -0.871017
     3  C   -0.565425
     4  F   -0.169126
     5  C    1.345928
     6  C   -0.870993
     7  F   -0.174090
     8  C   -0.565514
     9  F   -0.169124
    10  C    1.345975
    11  C    0.384653
    12  O   -0.275836
    13  C   -0.267362
    14  C   -0.129539
    15  H    0.206498
    16  N    0.103190
    17  H    0.131214
    18  C   -0.134528
    19  H    0.388409
    20  C    0.300395
    21  C   -0.297084
    22  C   -0.123014
    23  H    0.121023
    24  C   -0.401239
    25  H    0.188587
    26  C   -0.242201
    27  H    0.147388
    28  H    0.149847
    29  H    0.183332
    30  C    0.384661
    31  O   -0.275834
    32  C   -0.267376
    33  C   -0.129531
    34  H    0.206495
    35  N    0.103193
    36  H    0.131215
    37  C   -0.134506
    38  H    0.388407
    39  C    0.300369
    40  C   -0.297078
    41  C   -0.123005
    42  H    0.121023
    43  C   -0.401245
    44  H    0.188587
    45  C   -0.242202
    46  H    0.147387
    47  H    0.149847
    48  H    0.183332
 Sum of Mulliken charges =  -0.00000

 Dipole moment (field-independent basis, Debye):
    X=             -0.0000    Y=              0.0000    Z=              0.0000  Tot=              0.0000
 Quadrupole moment (field-independent basis, Debye-Ang):
   XX=           -109.5359   YY=           -181.3715   ZZ=           -190.2744
   XY=             14.0678   XZ=              5.3614   YZ=              8.7310

  Exact polarizability:     696.919       0.067     278.765     -20.558      19.575     174.521
 Approx polarizability:     797.112      -0.382     510.551     -21.453      42.700     286.046

                      1                      2                      3
                      A                      A                      A
 Frequencies --      9.9486                15.5904                18.1064
 Red. masses --      7.4083                 5.3136                 4.3526
 Frc consts  --      0.0004                 0.0008                 0.0008
 IR Inten    --      0.5614                 0.2308                 0.2786

                      4                      5                      6
                      A                      A                      A
 Frequencies --     19.4905                24.2757                45.7174
 Red. masses --      4.5218                 7.3415                 6.8578
 Frc consts  --      0.0010                 0.0025                 0.0084
 IR Inten    --      0.0000                 0.0000                 0.0000

                      7                      8                      9
                      A                      A                      A
 Frequencies --     49.8685                58.2052                69.9023
 Red. masses --      5.1332                 6.2851                 6.5712
 Frc consts  --      0.0075                 0.0125                 0.0189
 IR Inten    --      9.7334                 0.0000                 2.3743

                     10                     11                     12
                      A                      A                      A
 Frequencies --     90.7706                98.2035               100.3780
 Red. masses --      6.6862                 6.1019                 7.0081
 Frc consts  --      0.0325                 0.0347                 0.0416
 IR Inten    --      0.0000                 1.3527                 0.0000

                     13                     14                     15
                      A                      A                      A
 Frequencies --    126.8968               138.7969               153.5019
 Red. masses --     18.2580                 6.7954                 7.7241
 Frc consts  --      0.1732                 0.0771                 0.1072
 IR Inten    --      0.4639                 0.0000                 0.6636

                     16                     17                     18
                      A                      A                      A
 Frequencies --    170.9049               176.8433               198.7574
 Red. masses --      8.5556                 8.9256                 8.8858
 Frc consts  --      0.1472                 0.1645                 0.2068
 IR Inten    --      7.8302                 0.0000                 2.9162

                     19                     20                     21
                      A                      A                      A
 Frequencies --    235.1995               263.0961               264.8323
 Red. masses --      8.2754                 6.1494                 5.5420
 Frc consts  --      0.2697                 0.2508                 0.2290
 IR Inten    --      0.0000                 2.4657                 0.0000

                     22                     23                     24
                      A                      A                      A
 Frequencies --    282.3710               294.3919               315.2519
 Red. masses --      6.9655                10.4129                18.2408
 Frc consts  --      0.3272                 0.5317                 1.0681
 IR Inten    --      4.7242                 0.0000                 1.3651

                     25                     26                     27
                      A                      A                      A
 Frequencies --    316.0574               336.0063               369.2594
 Red. masses --     14.4713                11.0937                 3.0029
 Frc consts  --      0.8517                 0.7379                 0.2412
 IR Inten    --      0.0000                 5.6196                 0.0000

                     28                     29                     30
                      A                      A                      A
 Frequencies --    372.5453               407.2767               409.0295
 Red. masses --      2.9036                 7.1759                11.5601
 Frc consts  --      0.2374                 0.7013                 1.1395
 IR Inten    --      0.9429                 0.0000                 0.0000

                     31                     32                     33
                      A                      A                      A
 Frequencies --    414.1363               414.9105               438.3000
 Red. masses --      2.9404                 3.1251                 9.9937
 Frc consts  --      0.2971                 0.3170                 1.1311
 IR Inten    --      0.4533                 0.0000                35.2004

                     34                     35                     36
                      A                      A                      A
 Frequencies --    444.8616               450.7267               458.1616
 Red. masses --     13.4930                 5.3397                 5.1241
 Frc consts  --      1.5733                 0.6391                 0.6337
 IR Inten    --      0.0000                 4.0958                 0.0000

                     37                     38                     39
                      A                      A                      A
 Frequencies --    489.2909               495.0246               510.3397
 Red. masses --      8.1685                 8.6680                11.4547
 Frc consts  --      1.1522                 1.2515                 1.7577
 IR Inten    --     12.2922                 0.0000                 0.0000

                     40                     41                     42
                      A                      A                      A
 Frequencies --    517.5023               518.3173               620.1484
 Red. masses --      2.9833                 3.1697                 8.2262
 Frc consts  --      0.4707                 0.5017                 1.8640
 IR Inten    --     21.8066                 0.0000                10.4338

                     43                     44                     45
                      A                      A                      A
 Frequencies --    630.6305               631.8003               631.9807
 Red. masses --      6.3226                 6.4399                 6.4809
 Frc consts  --      1.4815                 1.5146                 1.5251
 IR Inten    --      0.0000                 0.0856                 0.0000

                     46                     47                     48
                      A                      A                      A
 Frequencies --    643.2491               664.2970               685.9348
 Red. masses --      6.5664                 7.7783                11.9870
 Frc consts  --      1.6008                 2.0224                 3.3230
 IR Inten    --      5.5861                 0.0000                 8.9475

                     49                     50                     51
                      A                      A                      A
 Frequencies --    698.9198               698.9366               750.0375
 Red. masses --      1.8609                 1.8649                 1.6076
 Frc consts  --      0.5356                 0.5368                 0.5328
 IR Inten    --     49.0926                 0.0009                25.3498

                     52                     53                     54
                      A                      A                      A
 Frequencies --    757.0160               763.0161               766.3506
 Red. masses --      1.3806                 5.1116                 1.9151
 Frc consts  --      0.4662                 1.7534                 0.6627
 IR Inten    --      0.0000                 0.0000               112.1352

                     55                     56                     57
                      A                      A                      A
 Frequencies --    766.8758               767.6514               781.0981
 Red. masses --      1.8618                 5.3434                 2.4088
 Frc consts  --      0.6451                 1.8552                 0.8659
 IR Inten    --      0.0000               251.2997                16.3711

                     58                     59                     60
                      A                      A                      A
 Frequencies --    796.9311               807.2427               814.8031
 Red. masses --      3.7890                 1.6281                 1.5658
 Frc consts  --      1.4178                 0.6251                 0.6125
 IR Inten    --      0.0000                 0.0000               119.0395

                     61                     62                     63
                      A                      A                      A
 Frequencies --    832.1333               834.0553               842.2917
 Red. masses --      1.4294                 1.2946                 4.0577
 Frc consts  --      0.5832                 0.5306                 1.6961
 IR Inten    --      0.0000                32.8932                 0.0000

                     64                     65                     66
                      A                      A                      A
 Frequencies --    848.7300               900.2296               903.1177
 Red. masses --      5.5278                 1.7136                 1.4683
 Frc consts  --      2.3461                 0.8182                 0.7056
 IR Inten    --     14.5514                 0.0000                13.1533

                     67                     68                     69
                      A                      A                      A
 Frequencies --    912.0626               944.3236               974.5003
 Red. masses --      3.3799                 5.1503                 1.3682
 Frc consts  --      1.6566                 2.7060                 0.7655
 IR Inten    --      0.0000                11.6441                 0.0000

                     70                     71                     72
                      A                      A                      A
 Frequencies --    974.6092               983.7043               985.7040
 Red. masses --      1.3617                 5.3842                 2.8153
 Frc consts  --      0.7621                 3.0697                 1.6116
 IR Inten    --      0.7218                 0.0000               196.5220

                     73                     74                     75
                      A                      A                      A
 Frequencies --    991.1349               993.3108               995.3858
 Red. masses --      1.3422                 1.5504                 1.2804
 Frc consts  --      0.7768                 0.9013                 0.7474
 IR Inten    --      0.0000                29.5675                 0.0000

                     76                     77                     78
                      A                      A                      A
 Frequencies --    996.7700              1012.1365              1012.3924
 Red. masses --      1.5890                 5.5170                 5.5020
 Frc consts  --      0.9302                 3.3299                 3.3225
 IR Inten    --     22.5131                 0.9338                 0.0000

                     79                     80                     81
                      A                      A                      A
 Frequencies --   1050.1812              1050.6678              1111.5626
 Red. masses --      2.1860                 2.1752                 1.8068
 Frc consts  --      1.4204                 1.4147                 1.3153
 IR Inten    --      2.4484                 0.0000                80.5183

                     82                     83                     84
                      A                      A                      A
 Frequencies --   1112.4465              1122.9855              1128.8709
 Red. masses --      1.6326                 4.4050                12.7179
 Frc consts  --      1.1904                 3.2730                 9.5489
 IR Inten    --      0.0000               338.5200                 0.0000

                     85                     86                     87
                      A                      A                      A
 Frequencies --   1170.8403              1172.3372              1192.7521
 Red. masses --      1.8558                 1.6534                 1.1283
 Frc consts  --      1.4989                 1.3389                 0.9458
 IR Inten    --      0.0000                53.0950                 0.0000

                     88                     89                     90
                      A                      A                      A
 Frequencies --   1192.8437              1202.1739              1213.1682
 Red. masses --      1.1198                 3.4772                 1.1486
 Frc consts  --      0.9388                 2.9608                 0.9960
 IR Inten    --     10.2473                 0.0000                14.9990

                     91                     92                     93
                      A                      A                      A
 Frequencies --   1213.5241              1260.5018              1261.8588
 Red. masses --      1.1789                 1.7784                 1.8397
 Frc consts  --      1.0229                 1.6648                 1.7259
 IR Inten    --      0.0000               113.3190                 0.0000

                     94                     95                     96
                      A                      A                      A
 Frequencies --   1306.3604              1314.1798              1329.7244
 Red. masses --     10.1423                11.0588                 2.2050
 Frc consts  --     10.1980                11.2529                 2.2971
 IR Inten    --    663.4348               136.5859              1205.4751

                     97                     98                     99
                      A                      A                      A
 Frequencies --   1331.3749              1332.9607              1334.9734
 Red. masses --      3.9626                 2.7599                 1.7879
 Frc consts  --      4.1384                 2.8892                 1.8773
 IR Inten    --      0.0000               399.9508                 0.0000

                    100                    101                    102
                      A                      A                      A
 Frequencies --   1362.2921              1362.3321              1387.6820
 Red. masses --      1.5774                 1.5753                11.4284
 Frc consts  --      1.7248                 1.7226                12.9663
 IR Inten    --      0.0004                12.2126                 0.0000

                    103                    104                    105
                      A                      A                      A
 Frequencies --   1414.2635              1414.7565              1460.5553
 Red. masses --      1.7594                 1.7343                 9.6433
 Frc consts  --      2.0734                 2.0453                12.1203
 IR Inten    --     58.0426                 0.0000                47.6863

                    106                    107                    108
                      A                      A                      A
 Frequencies --   1478.8770              1485.0374              1485.5357
 Red. masses --      8.1618                 2.1713                 2.3401
 Frc consts  --     10.5172                 2.8213                 3.0426
 IR Inten    --    308.1555                 0.0000               119.8089

                    109                    110                    111
                      A                      A                      A
 Frequencies --   1514.8580              1515.3474              1538.5421
 Red. masses --      2.6464                 2.6076                 2.7806
 Frc consts  --      3.5781                 3.5279                 3.8780
 IR Inten    --    873.0063                 0.0010                 0.0000

                    112                    113                    114
                      A                      A                      A
 Frequencies --   1539.2205              1597.9291              1614.7287
 Red. masses --      2.8179                 7.4805                 4.3395
 Frc consts  --      3.9335                11.2538                 6.6663
 IR Inten    --     63.8571                 0.0000               733.8690

                    115                    116                    117
                      A                      A                      A
 Frequencies --   1618.8680              1640.9450              1641.9334
 Red. masses --      5.4869                 4.8801                 5.0692
 Frc consts  --      8.4722                 7.7423                 8.0520
 IR Inten    --      0.0000               554.5347                 0.0002

                    118                    119                    120
                      A                      A                      A
 Frequencies --   1647.4304              1649.2730              1670.0892
 Red. masses --      4.3046                 4.3398                11.3373
 Frc consts  --      6.8833                 6.9552                18.6311
 IR Inten    --    235.0424                 0.0001                 0.0000

                    121                    122                    123
                      A                      A                      A
 Frequencies --   1681.0456              1688.7786              3162.9063
 Red. masses --      3.7598                 3.7843                 1.0867
 Frc consts  --      6.2600                 6.3589                 6.4052
 IR Inten    --   1729.1418                 0.0000                16.7818

                    124                    125                    126
                      A                      A                      A
 Frequencies --   3162.9175              3168.7855              3168.7910
 Red. masses --      1.0867                 1.0881                 1.0881
 Frc consts  --      6.4053                 6.4372                 6.4372
 IR Inten    --      0.2349                 4.1905                 0.1572

                    127                    128                    129
                      A                      A                      A
 Frequencies --   3178.1358              3178.1415              3181.9986
 Red. masses --      1.0910                 1.0910                 1.0922
 Frc consts  --      6.4926                 6.4926                 6.5154
 IR Inten    --     22.9752                 0.0074                 6.4199

                    130                    131                    132
                      A                      A                      A
 Frequencies --   3182.0083              3191.4013              3191.4026
 Red. masses --      1.0922                 1.0928                 1.0928
 Frc consts  --      6.5155                 6.5576                 6.5576
 IR Inten    --      0.0175                20.5243                15.7357

                    133                    134                    135
                      A                      A                      A
 Frequencies --   3197.0463              3197.0547              3220.2993
 Red. masses --      1.0960                 1.0960                 1.0931
 Frc consts  --      6.6005                 6.6005                 6.6786
 IR Inten    --     16.3382                 0.0211                 0.0126

                    136                    137                    138
                      A                      A                      A
 Frequencies --   3220.3075              3407.3132              3407.3232
 Red. masses --      1.0931                 1.0789                 1.0789
 Frc consts  --      6.6787                 7.3800                 7.3800
 IR Inten    --      1.6444               152.6146                 9.5986

 - Thermochemistry -
 -------------------
 Temperature   298.150 Kelvin.  Pressure   1.00000 Atm.
 Atom     1 has atomic number  9 and mass  18.99840

 Molecular mass:   440.11479 amu.
 Principal axes and moments of inertia in atomic units:
                           1         2         3
     Eigenvalues --  2866.43154********************
           X            0.99928  -0.00408   0.03768
           Y            0.00009   0.99443   0.10541
           Z           -0.03791  -0.10533   0.99371
 This molecule is an asymmetric top.
 Rotational symmetry number  1.
 Warning -- assumption of classical behavior for rotation
           may cause significant error
 Rotational temperatures (Kelvin)      0.03022     0.00165     0.00159
 Rotational constants (GHZ):           0.62961     0.03448     0.03311
 Zero-point vibrational energy     917709.2 (Joules/Mol)
                                  219.33777 (Kcal/Mol)
 Warning -- explicit consideration of  42 degrees of freedom as
           vibrations may cause significant error
 Vibrational temperatures:     14.31    22.43    26.05    28.04    34.93
          (Kelvin)             65.78    71.75    83.74   100.57   130.60
                              141.29   144.42   182.58   199.70   220.85
                              245.89   254.44   285.97   338.40   378.54
                              381.03   406.27   423.56   453.58   454.74
                              483.44   531.28   536.01   585.98   588.50
                              595.85   596.96   630.62   640.06   648.50
                              659.19   703.98   712.23   734.26   744.57
                              745.74   892.26   907.34   909.02   909.28
                              925.49   955.78   986.91  1005.59  1005.61
                             1079.14  1089.18  1097.81  1102.61  1103.36
                             1104.48  1123.83  1146.61  1161.44  1172.32
                             1197.25  1200.02  1211.87  1221.13  1295.23
                             1299.38  1312.25  1358.67  1402.09  1402.25
                             1415.33  1418.21  1426.02  1429.15  1432.14
                             1434.13  1456.24  1456.61  1510.98  1511.68
                             1599.29  1600.56  1615.73  1624.19  1684.58
                             1686.73  1716.10  1716.24  1729.66  1745.48
                             1745.99  1813.58  1815.53  1879.56  1890.81
                             1913.18  1915.55  1917.83  1920.73  1960.03
                             1960.09  1996.56  2034.81  2035.52  2101.41
                             2127.77  2136.64  2137.35  2179.54  2180.25
                             2213.62  2214.60  2299.06  2323.23  2329.19
                             2360.95  2362.38  2370.28  2372.94  2402.89
                             2418.65  2429.78  4550.72  4550.73  4559.18
                             4559.18  4572.63  4572.64  4578.19  4578.20
                             4591.71  4591.72  4599.84  4599.85  4633.29
                             4633.30  4902.36  4902.38

 Zero-point correction=                           0.349537 (Hartree/Particle)
 Thermal correction to Energy=                    0.377053
 Thermal correction to Enthalpy=                  0.377997
 Thermal correction to Gibbs Free Energy=         0.285826
 Sum of electronic and zero-point Energies=          -1583.607540
 Sum of electronic and thermal Energies=             -1583.580024
 Sum of electronic and thermal Enthalpies=           -1583.579080
 Sum of electronic and thermal Free Energies=        -1583.671251

                     E (Thermal)             CV                S
                      KCal/Mol        Cal/Mol-Kelvin    Cal/Mol-Kelvin
 Total                  236.604            104.220            193.989
 Electronic               0.000              0.000              0.000
 Translational            0.889              2.981             44.135
 Rotational               0.889              2.981             37.345
 Vibrational            234.827             98.258            112.509
 Vibration     1          0.593              1.987              8.021
 Vibration     2          0.593              1.986              7.129
 Vibration     3          0.593              1.986              6.832
 Vibration     4          0.593              1.986              6.685
 Vibration     5          0.593              1.985              6.250
 Vibration     6          0.595              1.979              4.995
 Vibration     7          0.595              1.978              4.823
 Vibration     8          0.596              1.974              4.517
 Vibration     9          0.598              1.968              4.156
 Vibration    10          0.602              1.956              3.643
 Vibration    11          0.604              1.950              3.490
 Vibration    12          0.604              1.949              3.447
 Vibration    13          0.611              1.926              2.993
 Vibration    14          0.614              1.915              2.820
 Vibration    15          0.619              1.899              2.628
 Vibration    16          0.626              1.878              2.426
 Vibration    17          0.628              1.871              2.361
 Vibration    18          0.637              1.842              2.145
 Vibration    19          0.655              1.787              1.839
 Vibration    20          0.670              1.740              1.641
 Vibration    21          0.671              1.737              1.630
 Vibration    22          0.681              1.706              1.519
 Vibration    23          0.689              1.684              1.449
 Vibration    24          0.703              1.645              1.335
 Vibration    25          0.703              1.643              1.330
 Vibration    26          0.717              1.604              1.231
 Vibration    27          0.742              1.535              1.083
 Vibration    28          0.744              1.529              1.069
 Vibration    29          0.772              1.454              0.936
 Vibration    30          0.773              1.451              0.930
 Vibration    31          0.778              1.440              0.912
 Vibration    32          0.778              1.438              0.909
 Vibration    33          0.798              1.387              0.832
 Vibration    34          0.804              1.372              0.811
 Vibration    35          0.810              1.359              0.794
 Vibration    36          0.816              1.343              0.771
 Vibration    37          0.845              1.274              0.685
 Vibration    38          0.851              1.261              0.671
 Vibration    39          0.865              1.227              0.633
 Vibration    40          0.873              1.211              0.616
 Vibration    41          0.873              1.209              0.614
 Vibration    42          0.980              0.989              0.416

 Normal termination of Gaussian 16 at Sat Oct 17 03:43:43 2020.
