 Gaussian 16, Revision C.01,
 Gaussian 16:  ES64L-G16RevC.01  3-Jul-2019

 --------------------------------------------------------------------
 #P B3LYP/6-311++G(d,p) EmpiricalDispersion=GD3 freq(noraman) SCF=YQC
 --------------------------------------------------------------------

 ------------------------------------------------
 Restart from An_Cyanohydrine_Benzobisoxazole.log
 ------------------------------------------------
 Symbolic Z-matrix:
 Charge =  0 Multiplicity = 1

                         Standard orientation:
 ---------------------------------------------------------------------
 Center     Atomic      Atomic             Coordinates (Angstroms)
 Number     Number       Type             X           Y           Z
 ---------------------------------------------------------------------
      1          6           0        3.612597   -0.800847   -0.000016
      2          6           0        3.614570    0.625465   -0.000017
      3          6           0        2.495514    1.393160   -0.000011
      4          6           0        1.240966    0.702199   -0.000023
      5          6           0        2.431319   -1.493354   -0.000022
      6          6           0        1.212278   -0.752274   -0.000024
      7          6           0        0.030325    1.399348   -0.000028
      8          6           0       -1.212277    0.752274   -0.000023
      9          6           0       -0.030325   -1.399348   -0.000029
     10          6           0       -1.240965   -0.702199   -0.000023
     11          6           0       -2.431319    1.493354   -0.000021
     12          6           0       -3.612597    0.800847   -0.000016
     13          6           0       -3.614570   -0.625465   -0.000018
     14          6           0       -2.495514   -1.393160   -0.000013
     15          1           0        2.533713    2.475171   -0.000009
     16          1           0        2.417102   -2.576510    0.000000
     17          1           0        0.051379    2.484662   -0.000043
     18          1           0       -0.051379   -2.484662   -0.000046
     19          1           0       -2.417101    2.576510    0.000003
     20          1           0       -2.533712   -2.475171   -0.000011
     21          7           0        4.936443   -1.237564   -0.000007
     22          8           0        4.930639    1.025170   -0.000009
     23          6           0        5.650357   -0.158439    0.000001
     24          6           0        7.734966    1.201775    0.000127
     25          6           0        9.124322    1.279333    0.000143
     26          1           0        7.135579    2.103037    0.000201
     27          6           0        9.891873    0.115197    0.000042
     28          1           0        9.608119    2.249264    0.000235
     29          6           0        9.265416   -1.133113   -0.000079
     30          1           0       10.974122    0.178944    0.000057
     31          6           0        7.879161   -1.219879   -0.000095
     32          1           0        9.860623   -2.038989   -0.000162
     33          1           0        7.379933   -2.180674   -0.000187
     34          6           0        7.103837   -0.050101    0.000009
     35          7           0       -4.936443    1.237565   -0.000006
     36          8           0       -4.930639   -1.025170   -0.000010
     37          6           0       -5.650357    0.158439    0.000001
     38          6           0       -7.734966   -1.201775    0.000125
     39          6           0       -9.124322   -1.279333    0.000141
     40          1           0       -7.135579   -2.103037    0.000199
     41          6           0       -9.891873   -0.115197    0.000042
     42          1           0       -9.608119   -2.249264    0.000233
     43          6           0       -9.265416    1.133113   -0.000078
     44          1           0      -10.974122   -0.178944    0.000056
     45          6           0       -7.879161    1.219879   -0.000094
     46          1           0       -9.860623    2.038989   -0.000160
     47          1           0       -7.379933    2.180674   -0.000185
     48          6           0       -7.103837    0.050101    0.000009
 ---------------------------------------------------------------------

 SCF Done:  E(RB3LYP) =  -1336.97227575     a.u. after    7 cycles
 SCF Done:  E(RB3LYP) =  -1336.97228645     A.U. after    9 cycles

 The electronic state is 1-A.
 Alpha  occ. eigenvalues --  -19.20105 -19.20105 -14.32141 -14.32141 -10.28483
 Alpha  occ. eigenvalues --  -10.28483 -10.24457 -10.24457 -10.21634 -10.21634
 Alpha  occ. eigenvalues --  -10.20757 -10.20757 -10.19848 -10.19847 -10.19669
 Alpha  occ. eigenvalues --  -10.19668 -10.19433 -10.19433 -10.19336 -10.19336
 Alpha  occ. eigenvalues --  -10.19237 -10.19237 -10.19112 -10.19112 -10.19047
 Alpha  occ. eigenvalues --  -10.19047 -10.18987 -10.18987 -10.18676 -10.18676
 Alpha  occ. eigenvalues --  -10.18238 -10.18237  -1.13677  -1.13677  -0.94195
 Alpha  occ. eigenvalues --   -0.94183  -0.89463  -0.88274  -0.87868  -0.86167
 Alpha  occ. eigenvalues --   -0.82108  -0.79800  -0.79392  -0.77774  -0.76950
 Alpha  occ. eigenvalues --   -0.76625  -0.76411  -0.74129  -0.71753  -0.69159
 Alpha  occ. eigenvalues --   -0.66299  -0.64666  -0.63060  -0.62550  -0.61806
 Alpha  occ. eigenvalues --   -0.61660  -0.61370  -0.60013  -0.58556  -0.57701
 Alpha  occ. eigenvalues --   -0.55241  -0.54125  -0.53747  -0.52058  -0.51133
 Alpha  occ. eigenvalues --   -0.48897  -0.48861  -0.48818  -0.48336  -0.47621
 Alpha  occ. eigenvalues --   -0.47510  -0.46851  -0.46661  -0.45775  -0.45443
 Alpha  occ. eigenvalues --   -0.45245  -0.44065  -0.44024  -0.43816  -0.43090
 Alpha  occ. eigenvalues --   -0.42662  -0.41874  -0.40867  -0.39362  -0.39307
 Alpha  occ. eigenvalues --   -0.38914  -0.37535  -0.37523  -0.37237  -0.37051
 Alpha  occ. eigenvalues --   -0.36550  -0.36241  -0.36107  -0.35061  -0.34801
 Alpha  occ. eigenvalues --   -0.34751  -0.31315  -0.30486  -0.30383  -0.30376
 Alpha  occ. eigenvalues --   -0.28260  -0.27364  -0.27324  -0.26935  -0.24907
 Alpha  occ. eigenvalues --   -0.23261  -0.19621
 Alpha virt. eigenvalues --   -0.09298  -0.06720  -0.04576  -0.02903  -0.02830
 Alpha virt. eigenvalues --   -0.01270  -0.01106  -0.00964  -0.00908   0.00006
 Alpha virt. eigenvalues --    0.00158   0.00356   0.00873   0.00986   0.01152

 Mulliken charges:
               1
     1  C   -0.006367
     2  C    0.198961
     3  C   -0.302596
     4  C    0.221420
     5  C   -0.401197
     6  C    0.251369
     7  C   -0.279275
     8  C    0.251368
     9  C   -0.279275
    10  C    0.221420
    11  C   -0.401198
    12  C   -0.006367
    13  C    0.198961
    14  C   -0.302597
    15  H    0.168253
    16  H    0.182377
    17  H    0.056623
    18  H    0.056623
    19  H    0.182377
    20  H    0.168253
    21  N    0.076011
    22  O   -0.094036
    23  C    0.032283
    24  C   -0.506954
    25  C   -0.231715
    26  H    0.174695
    27  C   -0.379872
    28  H    0.183345
    29  C   -0.191594
    30  H    0.157118
    31  C   -0.451924
    32  H    0.181428
    33  H    0.196932
    34  C    0.764718
    35  N    0.076010
    36  O   -0.094036
    37  C    0.032283
    38  C   -0.506954
    39  C   -0.231715
    40  H    0.174695
    41  C   -0.379872
    42  H    0.183345
    43  C   -0.191594
    44  H    0.157118
    45  C   -0.451925
    46  H    0.181428
    47  H    0.196932
    48  C    0.764719
 Sum of Mulliken charges =   0.00000

 Dipole moment (field-independent basis, Debye):
    X=             -0.0000    Y=             -0.0000    Z=              0.0000  Tot=              0.0000
 Quadrupole moment (field-independent basis, Debye-Ang):
   XX=           -127.5064   YY=           -169.5085   ZZ=           -192.8517
   XY=             10.0116   XZ=             -0.0000   YZ=              0.0000

  Exact polarizability:     934.271      16.443     320.187       0.000       0.000     161.347
 Approx polarizability:    1160.316      53.755     642.358       0.000       0.000     266.567

                      1                      2                      3
                      A                      A                      A
 Frequencies --     15.4285                32.2415                39.3463
 Red. masses --      6.6755                 3.6982                 6.9961
 Frc consts  --      0.0009                 0.0023                 0.0064
 IR Inten    --      0.3550                 0.0208                 0.0000

                      4                      5                      6
                      A                      A                      A
 Frequencies --     44.6338                48.3003                77.0946
 Red. masses --      4.1674                 5.8875                 7.1247
 Frc consts  --      0.0049                 0.0081                 0.0249
 IR Inten    --      0.0000                 0.5121                 0.9116

                      7                      8                      9
                      A                      A                      A
 Frequencies --     84.5886                99.3836               134.3275
 Red. masses --      5.8335                 6.6882                 6.1934
 Frc consts  --      0.0246                 0.0389                 0.0658
 IR Inten    --      0.0000                 0.6631                 0.0000

                     10                     11                     12
                      A                      A                      A
 Frequencies --    159.6569               167.5813               189.1834
 Red. masses --      6.0575                 7.4851                 5.9504
 Frc consts  --      0.0910                 0.1239                 0.1255
 IR Inten    --      0.1732                 0.0000                 0.0002

                     13                     14                     15
                      A                      A                      A
 Frequencies --    201.2062               241.3027               262.6117
 Red. masses --      7.7827                 6.2198                 6.2069
 Frc consts  --      0.1856                 0.2134                 0.2522
 IR Inten    --      0.0000                 0.0000                 0.0000

                     16                     17                     18
                      A                      A                      A
 Frequencies --    285.1571               298.6613               329.0606
 Red. masses --      7.0374                 7.2415                 5.7139
 Frc consts  --      0.3372                 0.3806                 0.3645
 IR Inten    --      6.9340                 0.3186                 0.6670

                     19                     20                     21
                      A                      A                      A
 Frequencies --    340.5640               381.9643               395.9018
 Red. masses --      5.8289                 4.5298                 3.2388
 Frc consts  --      0.3983                 0.3894                 0.2991
 IR Inten    --      0.9984                 0.0000                 2.8850

                     22                     23                     24
                      A                      A                      A
 Frequencies --    397.4833               406.7868               410.7406
 Red. masses --      5.0796                 8.7086                 2.9028
 Frc consts  --      0.4728                 0.8490                 0.2885
 IR Inten    --      0.0000                 0.0000                 0.0209

                     25                     26                     27
                      A                      A                      A
 Frequencies --    410.8102               430.9078               469.5075
 Red. masses --      2.9044                 5.6446                 3.3488
 Frc consts  --      0.2888                 0.6175                 0.4349
 IR Inten    --      0.0000                 0.0000                 0.0000

                     28                     29                     30
                      A                      A                      A
 Frequencies --    472.1108               500.1606               505.9514
 Red. masses --      2.6764                 3.8353                 4.7003
 Frc consts  --      0.3515                 0.5653                 0.7089
 IR Inten    --     21.1023                 1.6374                 0.0000

                     31                     32                     33
                      A                      A                      A
 Frequencies --    525.6749               536.5934               551.3438
 Red. masses --      7.5909                 8.3448                 8.7857
 Frc consts  --      1.2359                 1.4156                 1.5735
 IR Inten    --      0.0000                 2.0205                 5.7079

                     34                     35                     36
                      A                      A                      A
 Frequencies --    619.7835               631.2303               632.9252
 Red. masses --      6.3079                 6.4722                 6.5472
 Frc consts  --      1.4276                 1.5194                 1.5453
 IR Inten    --      0.0000                 0.7492                 0.0000

                     37                     38                     39
                      A                      A                      A
 Frequencies --    636.1110               691.0571               696.5523
 Red. masses --      7.2894                 8.0406                 2.9879
 Frc consts  --      1.7378                 2.2624                 0.8541
 IR Inten    --      0.0000                 0.2839                 0.0000

                     40                     41                     42
                      A                      A                      A
 Frequencies --    699.1079               702.0199               702.8785
 Red. masses --      2.3008                 6.5383                 6.7047
 Frc consts  --      0.6625                 1.8985                 1.9516
 IR Inten    --     57.3301                 0.0000                27.4027

                     43                     44                     45
                      A                      A                      A
 Frequencies --    706.4132               711.2332               732.1027
 Red. masses --      2.3995                 2.9911                 5.0399
 Frc consts  --      0.7055                 0.8915                 1.5915
 IR Inten    --      0.0000                72.1983                 0.0000

                     46                     47                     48
                      A                      A                      A
 Frequencies --    737.3917               747.0239               750.9231
 Red. masses --      4.6693                 7.0315                 3.6915
 Frc consts  --      1.4959                 2.3119                 1.2264
 IR Inten    --     12.3580                 7.3661                 0.0000

                     49                     50                     51
                      A                      A                      A
 Frequencies --    752.8245               777.6350               789.1812
 Red. masses --      6.0576                 5.9877                 2.2591
 Frc consts  --      2.0227                 2.1334                 0.8290
 IR Inten    --      0.0000                29.3761                41.6455

                     52                     53                     54
                      A                      A                      A
 Frequencies --    789.5200               832.2055               834.8260
 Red. masses --      2.2994                 7.4529                 1.3903
 Frc consts  --      0.8445                 3.0411                 0.5709
 IR Inten    --      0.0000                 0.0000                12.3013

                     55                     56                     57
                      A                      A                      A
 Frequencies --    842.5368               845.7418               859.9114
 Red. masses --      1.2905                 6.1565                 1.2486
 Frc consts  --      0.5397                 2.5945                 0.5440
 IR Inten    --      0.0000                 1.7407                 0.0038

                     58                     59                     60
                      A                      A                      A
 Frequencies --    859.9169               861.0164               869.6494
 Red. masses --      1.2484                 1.3981                 4.0318
 Frc consts  --      0.5439                 0.6107                 1.7965
 IR Inten    --      0.0000                 0.1782                 0.0000

                     61                     62                     63
                      A                      A                      A
 Frequencies --    875.6898               888.9264               915.1819
 Red. masses --      1.5053                 1.5131                 1.5661
 Frc consts  --      0.6801                 0.7045                 0.7728
 IR Inten    --      0.0000                 0.0000                89.1659

                     64                     65                     66
                      A                      A                      A
 Frequencies --    918.0855               926.6359               927.8960
 Red. masses --      3.0513                 6.1746                12.5804
 Frc consts  --      1.5153                 3.1237                 6.3818
 IR Inten    --     14.3638               101.9794                 0.0000

                     67                     68                     69
                      A                      A                      A
 Frequencies --    947.7213               947.7667               994.2988
 Red. masses --      1.4075                 1.4080                 1.3645
 Frc consts  --      0.7448                 0.7452                 0.7948
 IR Inten    --      4.7811                 0.0000                 0.0000

                     70                     71                     72
                      A                      A                      A
 Frequencies --    994.2998              1005.5086              1005.6139
 Red. masses --      1.3646                 1.2886                 1.2890
 Frc consts  --      0.7949                 0.7676                 0.7680
 IR Inten    --      0.0146                 0.0000                 0.1105

                     73                     74                     75
                      A                      A                      A
 Frequencies --   1014.9863              1015.0086              1037.6601
 Red. masses --      6.2298                 6.2263                 4.8650
 Frc consts  --      3.7814                 3.7793                 3.0863
 IR Inten    --      0.0000                 0.1281               173.2326

                     76                     77                     78
                      A                      A                      A
 Frequencies --   1039.0095              1063.8870              1065.3342
 Red. masses --      4.4587                 2.4382                 2.4819
 Frc consts  --      2.8359                 1.6259                 1.6596
 IR Inten    --      0.0000                67.2970                 0.0000

                     79                     80                     81
                      A                      A                      A
 Frequencies --   1110.1893              1110.9809              1145.1779
 Red. masses --      1.6717                 1.6465                 2.5728
 Frc consts  --      1.2140                 1.1974                 1.9879
 IR Inten    --     16.2970                 0.0000                43.5204

                     82                     83                     84
                      A                      A                      A
 Frequencies --   1155.1224              1164.4854              1180.9219
 Red. masses --      2.1869                 2.2481                 1.7820
 Frc consts  --      1.7192                 1.7961                 1.4642
 IR Inten    --      0.0000                 0.7673                 0.0000

                     85                     86                     87
                      A                      A                      A
 Frequencies --   1193.0716              1193.3384              1208.4916
 Red. masses --      1.1364                 1.1262                 3.4189
 Frc consts  --      0.9530                 0.9449                 2.9419
 IR Inten    --      0.0000                 0.3589                 0.0000

                     88                     89                     90
                      A                      A                      A
 Frequencies --   1211.3136              1211.8415              1224.6007
 Red. masses --      1.1590                 1.1685                 3.7581
 Frc consts  --      1.0019                 1.0110                 3.3206
 IR Inten    --     79.1665                 0.0000               348.8352

                     91                     92                     93
                      A                      A                      A
 Frequencies --   1251.4326              1279.7306              1285.5500
 Red. masses --      1.5694                 3.0831                 6.3619
 Frc consts  --      1.4481                 2.9749                 6.1946
 IR Inten    --     20.1984                 0.0000                43.3163

                     94                     95                     96
                      A                      A                      A
 Frequencies --   1303.0985              1316.8842              1319.3161
 Red. masses --      5.0435                 2.6557                 4.2755
 Frc consts  --      5.0459                 2.7134                 4.3847
 IR Inten    --      0.0000                 0.0000                36.2300

                     97                     98                     99
                      A                      A                      A
 Frequencies --   1335.4539              1343.2238              1343.9557
 Red. masses --      1.7170                 4.6317                 5.1912
 Frc consts  --      1.8042                 4.9236                 5.5245
 IR Inten    --      0.0000                 0.0000                39.2402

                    100                    101                    102
                      A                      A                      A
 Frequencies --   1358.7743              1358.8458              1374.5434
 Red. masses --      1.5496                 1.5569                 6.6254
 Frc consts  --      1.6856                 1.6938                 7.3753
 IR Inten    --     15.2851                 0.0000                 2.4822

                    103                    104                    105
                      A                      A                      A
 Frequencies --   1429.9157              1435.9518              1446.1634
 Red. masses --      2.2077                 7.5110                 2.9245
 Frc consts  --      2.6595                 9.1249                 3.6037
 IR Inten    --     19.3266                 0.0000               193.2971

                    106                    107                    108
                      A                      A                      A
 Frequencies --   1476.6970              1478.4493              1479.6726
 Red. masses --      4.4258                 2.3011                 2.9695
 Frc consts  --      5.6863                 2.9634                 3.8305
 IR Inten    --     14.1685                 0.0000                22.6262

                    109                    110                    111
                      A                      A                      A
 Frequencies --   1484.1676              1521.3763              1521.4188
 Red. masses --      3.9885                 2.2741                 2.2644
 Frc consts  --      5.1763                 3.1013                 3.0882
 IR Inten    --      0.0000                 0.0010                87.4168

                    112                    113                    114
                      A                      A                      A
 Frequencies --   1581.8421              1584.7993              1618.2925
 Red. masses --      8.4649                 7.3169                 5.7667
 Frc consts  --     12.4795                10.8274                 8.8980
 IR Inten    --      0.0000               241.0828                 0.0000

                    115                    116                    117
                      A                      A                      A
 Frequencies --   1618.4294              1638.5655              1639.3217
 Red. masses --      5.7315                 6.1954                 6.1501
 Frc consts  --      8.8452                 9.8005                 9.7378
 IR Inten    --      0.1098                34.1799                 0.0000

                    118                    119                    120
                      A                      A                      A
 Frequencies --   1643.3806              1651.8822              1656.6769
 Red. masses --      6.1343                 7.4195                 8.5818
 Frc consts  --      9.7609                11.9284                13.8773
 IR Inten    --      0.0000                70.7475                 0.0000

                    121                    122                    123
                      A                      A                      A
 Frequencies --   1680.4569              1695.0790              3155.3594
 Red. masses --      8.3768                 8.3462                 1.0899
 Frc consts  --     13.9375                14.1292                 6.3932
 IR Inten    --      0.0000                46.2006                16.0515

                    124                    125                    126
                      A                      A                      A
 Frequencies --   3157.2659              3164.5859              3164.6049
 Red. masses --      1.0902                 1.0862                 1.0862
 Frc consts  --      6.4028                 6.4089                 6.4090
 IR Inten    --      0.0000                 1.3772                 0.0000

                    127                    128                    129
                      A                      A                      A
 Frequencies --   3176.0595              3176.0605              3186.8649
 Red. masses --      1.0897                 1.0897                 1.0942
 Frc consts  --      6.4765                 6.4765                 6.5477
 IR Inten    --      0.0069                20.4060                49.4658

                    130                    131                    132
                      A                      A                      A
 Frequencies --   3186.8859              3188.8909              3188.9181
 Red. masses --      1.0942                 1.0919                 1.0919
 Frc consts  --      6.5477                 6.5421                 6.5422
 IR Inten    --      0.0000                 9.0447                 0.0000

                    133                    134                    135
                      A                      A                      A
 Frequencies --   3193.3587              3193.6108              3200.6939
 Red. masses --      1.0925                 1.0925                 1.0939
 Frc consts  --      6.5641                 6.5651                 6.6026
 IR Inten    --      4.9061                 0.0000                11.4090

                    136                    137                    138
                      A                      A                      A
 Frequencies --   3200.6966              3203.2421              3203.2477
 Red. masses --      1.0939                 1.0949                 1.0949
 Frc consts  --      6.6026                 6.6193                 6.6194
 IR Inten    --      0.0050                12.0557                 0.0008

 - Thermochemistry -
 -------------------
 Temperature   298.150 Kelvin.  Pressure   1.00000 Atm.
 Atom     1 has atomic number  6 and mass  12.00000

 Molecular mass:   412.12118 amu.
 Principal axes and moments of inertia in atomic units:
                           1         2         3
     Eigenvalues --  1751.88613********************
           X            1.00000   0.00036  -0.00000
           Y           -0.00036   1.00000  -0.00000
           Z            0.00000   0.00000   1.00000
 This molecule is an asymmetric top.
 Rotational symmetry number  1.
 Warning -- assumption of classical behavior for rotation
           may cause significant error
 Rotational temperatures (Kelvin)      0.04944     0.00166     0.00160
 Rotational constants (GHZ):           1.03017     0.03456     0.03344
 Zero-point vibrational energy     954289.4 (Joules/Mol)
                                  228.08063 (Kcal/Mol)
 Warning -- explicit consideration of  34 degrees of freedom as
           vibrations may cause significant error
 Vibrational temperatures:     22.20    46.39    56.61    64.22    69.49
          (Kelvin)            110.92   121.70   142.99   193.27   229.71
                              241.11   272.19   289.49   347.18   377.84
                              410.28   429.71   473.44   490.00   549.56
                              569.61   571.89   585.28   590.96   591.06
                              619.98   675.52   679.26   719.62   727.95
                              756.33   772.04   793.26   891.73   908.20
                              910.64   915.22   994.28  1002.18  1005.86
                             1010.05  1011.29  1016.37  1023.31  1053.33
                             1060.94  1074.80  1080.41  1083.15  1118.84
                             1135.46  1135.94  1197.36  1201.13  1212.22
                             1216.83  1237.22  1237.23  1238.81  1251.23
                             1259.92  1278.97  1316.74  1320.92  1333.22
                             1335.04  1363.56  1363.62  1430.57  1430.58
                             1446.70  1446.85  1460.34  1460.37  1492.96
                             1494.90  1530.70  1532.78  1597.31  1598.45
                             1647.66  1661.96  1675.43  1699.08  1716.56
                             1716.95  1738.75  1742.81  1743.57  1761.93
                             1800.53  1841.25  1849.62  1874.87  1894.70
                             1898.20  1921.42  1932.60  1933.65  1954.97
                             1955.08  1977.66  2057.33  2066.01  2080.71
                             2124.64  2127.16  2128.92  2135.39  2188.92
                             2188.98  2275.92  2280.17  2328.36  2328.56
                             2357.53  2358.62  2364.46  2376.69  2383.59
                             2417.80  2438.84  4539.86  4542.60  4553.13
                             4553.16  4569.64  4569.64  4585.19  4585.22
                             4588.10  4588.14  4594.53  4594.89  4605.08
                             4605.09  4608.75  4608.76

 Zero-point correction=                           0.363470 (Hartree/Particle)
 Thermal correction to Energy=                    0.385985
 Thermal correction to Enthalpy=                  0.386929
 Thermal correction to Gibbs Free Energy=         0.309843
 Sum of electronic and zero-point Energies=          -1336.608817
 Sum of electronic and thermal Energies=             -1336.586302
 Sum of electronic and thermal Enthalpies=           -1336.585358
 Sum of electronic and thermal Free Energies=        -1336.662444

                     E (Thermal)             CV                S
                      KCal/Mol        Cal/Mol-Kelvin    Cal/Mol-Kelvin
 Total                  242.209             92.979            162.241
 Electronic               0.000              0.000              0.000
 Translational            0.889              2.981             43.939
 Rotational               0.889              2.981             36.844
 Vibrational            240.432             87.018             81.458
 Vibration     1          0.593              1.986              7.150
 Vibration     2          0.594              1.983              5.686
 Vibration     3          0.594              1.981              5.292
 Vibration     4          0.595              1.980              5.042
 Vibration     5          0.595              1.978              4.886
 Vibration     6          0.599              1.964              3.964
 Vibration     7          0.601              1.960              3.781
 Vibration     8          0.604              1.950              3.466
 Vibration     9          0.613              1.919              2.883
 Vibration    10          0.622              1.892              2.554
 Vibration    11          0.624              1.882              2.462
 Vibration    12          0.633              1.855              2.236
 Vibration    13          0.638              1.838              2.122
 Vibration    14          0.658              1.777              1.793
 Vibration    15          0.670              1.741              1.644
 Vibration    16          0.683              1.701              1.503
 Vibration    17          0.692              1.676              1.424
 Vibration    18          0.712              1.617              1.265
 Vibration    19          0.720              1.594              1.210
 Vibration    20          0.751              1.509              1.031
 Vibration    21          0.763              1.479              0.978
 Vibration    22          0.764              1.476              0.972
 Vibration    23          0.772              1.455              0.938
 Vibration    24          0.775              1.447              0.924
 Vibration    25          0.775              1.447              0.924
 Vibration    26          0.792              1.403              0.856
 Vibration    27          0.827              1.318              0.739
 Vibration    28          0.829              1.312              0.732
 Vibration    29          0.856              1.250              0.658
 Vibration    30          0.861              1.237              0.643
 Vibration    31          0.881              1.193              0.597
 Vibration    32          0.892              1.169              0.573
 Vibration    33          0.907              1.137              0.541
 Vibration    34          0.980              0.990              0.417

 Optimization completed.
    -- Stationary point found.
 Normal termination of Gaussian 16 at Fri Jul 31 03:56:42 2020.
