 Gaussian 16, Revision C.01,
 Gaussian 16:  ES64L-G16RevC.01  3-Jul-2019

 --------------------------------------------------------------------
 #P B3LYP/6-311++G(d,p) EmpiricalDispersion=GD3 freq(noraman) SCF=YQC
 --------------------------------------------------------------------

 -------------------------------------------------------
 Restart from 3_Phenyl_Double_Catechol_BoronateEster.log
 -------------------------------------------------------
 Symbolic Z-matrix:
 Charge =  0 Multiplicity = 1

                         Standard orientation:
 ---------------------------------------------------------------------
 Center     Atomic      Atomic             Coordinates (Angstroms)
 Number     Number       Type             X           Y           Z
 ---------------------------------------------------------------------
      1          6           0        0.689682   -1.208556   -0.000004
      2          6           0        1.391402    0.006384   -0.000004
      3          6           0        0.701724    1.201449   -0.000004
      4          6           0       -0.701310    1.201691   -0.000004
      5          6           0       -1.391400    0.006864   -0.000004
      6          6           0       -0.690098   -1.208317   -0.000004
      7          5           0        2.852858   -1.647832   -0.000008
      8          6           0        4.181994   -2.415457   -0.000002
      9          6           0        5.407201   -1.727429   -0.000001
     10          6           0        4.198623   -3.820515    0.000002
     11          6           0        6.612936   -2.422654    0.000003
     12          6           0        5.403520   -4.517201    0.000006
     13          6           0        6.611391   -3.818202    0.000007
     14          8           0        2.738704   -0.256270   -0.000004
     15          8           0        1.590463   -2.244346   -0.000001
     16          1           0        7.552332   -1.881243    0.000004
     17          1           0        5.404241   -5.601446    0.000009
     18          1           0        3.259714   -4.363429    0.000001
     19          1           0        5.407999   -0.642855   -0.000004
     20          1           0        7.550605   -4.360516    0.000010
     21          5           0        0.000569    3.294465   -0.000007
     22          6           0        0.000833    4.829331   -0.000001
     23          6           0       -1.207524    5.546524    0.000001
     24          6           0        1.209436    5.546108    0.000001
     25          6           0       -1.208124    6.938335    0.000006
     26          6           0        1.210517    6.937918    0.000005
     27          6           0        0.001317    7.634618    0.000008
     28          8           0       -1.147480    2.499812   -0.000002
     29          8           0        1.148342    2.499416   -0.000002
     30          1           0       -2.146627    7.481291    0.000007
     31          1           0        2.149208    7.480550    0.000007
     32          1           0        2.148997    5.004321    0.000000
     33          1           0       -2.147271    5.005062    0.000000
     34          1           0        0.001503    8.719157    0.000011
     35          5           0       -2.853425   -1.646847   -0.000007
     36          6           0       -4.182827   -2.414014   -0.000002
     37          6           0       -4.199941   -3.819066    0.000002
     38          6           0       -5.407796   -1.725564   -0.000001
     39          6           0       -5.405078   -4.515337    0.000006
     40          6           0       -6.613771   -2.420374    0.000003
     41          6           0       -6.612708   -3.815923    0.000007
     42          8           0       -1.591237   -2.243797   -0.000001
     43          8           0       -2.738792   -0.255326   -0.000004
     44          1           0       -5.406172   -5.599582    0.000008
     45          1           0       -7.552980   -1.878640    0.000004
     46          1           0       -5.408222   -0.640989   -0.000003
     47          1           0       -3.261219   -4.362305    0.000001
     48          1           0       -7.552108   -4.357913    0.000010
 ---------------------------------------------------------------------

 SCF Done:  E(RB3LYP) =  -1450.21057475     a.u. after    6 cycles
 SCF Done:  E(RB3LYP) =  -1450.21060134     A.U. after    8 cycles

 The electronic state is 1-A.
 Alpha  occ. eigenvalues --  -19.17880 -19.17878 -19.17878 -19.17877 -19.17877
 Alpha  occ. eigenvalues --  -19.17876 -10.25595 -10.25570 -10.25570 -10.25513
 Alpha  occ. eigenvalues --  -10.25513 -10.25485 -10.18911 -10.18911 -10.18911
 Alpha  occ. eigenvalues --  -10.18746 -10.18746 -10.18746 -10.18746 -10.18746
 Alpha  occ. eigenvalues --  -10.18746 -10.18464 -10.18464 -10.18464 -10.18461
 Alpha  occ. eigenvalues --  -10.18460 -10.18460 -10.17481 -10.17481 -10.17480
 Alpha  occ. eigenvalues --   -6.80511  -6.80511  -6.80510  -1.13197  -1.12375
 Alpha  occ. eigenvalues --   -1.12375  -1.05410  -1.05410  -1.04621  -0.87614
 Alpha  occ. eigenvalues --   -0.86626  -0.86625  -0.86483  -0.76922  -0.76922
 Alpha  occ. eigenvalues --   -0.75963  -0.75851  -0.75851  -0.75837  -0.75033
 Alpha  occ. eigenvalues --   -0.75032  -0.65339  -0.65339  -0.63368  -0.61905
 Alpha  occ. eigenvalues --   -0.61856  -0.61856  -0.61284  -0.61284  -0.60582
 Alpha  occ. eigenvalues --   -0.57235  -0.57149  -0.56998  -0.56998  -0.53181
 Alpha  occ. eigenvalues --   -0.53181  -0.52467  -0.51752  -0.51752  -0.50655
 Alpha  occ. eigenvalues --   -0.47118  -0.47118  -0.46749  -0.46643  -0.46643
 Alpha  occ. eigenvalues --   -0.45847  -0.45817  -0.45817  -0.43327  -0.43326
 Alpha  occ. eigenvalues --   -0.43315  -0.42443  -0.42442  -0.42119  -0.39643
 Alpha  occ. eigenvalues --   -0.39549  -0.39549  -0.39522  -0.39522  -0.38897
 Alpha  occ. eigenvalues --   -0.38897  -0.38481  -0.38326  -0.37992  -0.37992
 Alpha  occ. eigenvalues --   -0.37790  -0.35381  -0.35380  -0.35372  -0.34782
 Alpha  occ. eigenvalues --   -0.34781  -0.34731  -0.33492  -0.27784  -0.27784
 Alpha  occ. eigenvalues --   -0.26721  -0.26699  -0.26699  -0.26695  -0.23368
 Alpha  occ. eigenvalues --   -0.23368
 Alpha virt. eigenvalues --   -0.05449  -0.05448  -0.05337  -0.02357  -0.02357
 Alpha virt. eigenvalues --   -0.02316  -0.01737  -0.00637  -0.00637  -0.00081
 Alpha virt. eigenvalues --   -0.00041  -0.00041   0.00810   0.00811   0.01391

 Mulliken charges:
               1
     1  C   -0.069767
     2  C   -0.069644
     3  C   -0.069640
     4  C   -0.069640
     5  C   -0.069644
     6  C   -0.069766
     7  B    0.755240
     8  C   -0.448496
     9  C   -0.049943
    10  C   -0.050113
    11  C   -0.088341
    12  C   -0.088344
    13  C   -0.349861
    14  O   -0.216355
    15  O   -0.216460
    16  H    0.182478
    17  H    0.182477
    18  H    0.188986
    19  H    0.188980
    20  H    0.149135
    21  B    0.755263
    22  C   -0.448426
    23  C   -0.050036
    24  C   -0.050038
    25  C   -0.088343
    26  C   -0.088342
    27  C   -0.349898
    28  O   -0.216452
    29  O   -0.216452
    30  H    0.182480
    31  H    0.182480
    32  H    0.188981
    33  H    0.188981
    34  H    0.149137
    35  B    0.755240
    36  C   -0.448496
    37  C   -0.050115
    38  C   -0.049943
    39  C   -0.088344
    40  C   -0.088340
    41  C   -0.349860
    42  O   -0.216459
    43  O   -0.216355
    44  H    0.182477
    45  H    0.182478
    46  H    0.188980
    47  H    0.188985
    48  H    0.149135
 Sum of Mulliken charges =   0.00000

 Dipole moment (field-independent basis, Debye):
    X=              0.0000    Y=              0.0007    Z=             -0.0000  Tot=              0.0007
 Quadrupole moment (field-independent basis, Debye-Ang):
   XX=           -159.8896   YY=           -159.8892   ZZ=           -194.3078
   XY=             -0.0000   XZ=             -0.0000   YZ=             -0.0000

  Exact polarizability:     453.348      -0.000     453.342      -0.000      -0.000     163.274
 Approx polarizability:     642.274       0.000     642.271      -0.000      -0.000     265.184

                      1                      2                      3
                      A                      A                      A
 Frequencies --     21.5229                33.4724                33.4965
 Red. masses --      7.0779                 3.8971                 3.8965
 Frc consts  --      0.0019                 0.0026                 0.0026
 IR Inten    --      0.5088                 0.0000                 0.0000

                      4                      5                      6
                      A                      A                      A
 Frequencies --     37.0091                38.1180                38.1374
 Red. masses --      3.6542                 5.5572                 5.5575
 Frc consts  --      0.0029                 0.0048                 0.0048
 IR Inten    --      0.0000                 0.1726                 0.1725

                      7                      8                      9
                      A                      A                      A
 Frequencies --     56.7411                56.7562                82.5269
 Red. masses --      6.9261                 6.9272                 5.6331
 Frc consts  --      0.0131                 0.0131                 0.0226
 IR Inten    --      0.0000                 0.0000                 0.0000

                     10                     11                     12
                      A                      A                      A
 Frequencies --    126.6223               148.9027               148.9037
 Red. masses --      5.8616                 7.8051                 7.8057
 Frc consts  --      0.0554                 0.1020                 0.1020
 IR Inten    --      0.6646                 0.0000                 0.0000

                     13                     14                     15
                      A                      A                      A
 Frequencies --    175.9421               175.9479               191.8562
 Red. masses --      5.8075                 5.8078                 6.8268
 Frc consts  --      0.1059                 0.1059                 0.1481
 IR Inten    --      0.0721                 0.0728                 0.0000

                     16                     17                     18
                      A                      A                      A
 Frequencies --    215.8228               215.8358               254.2368
 Red. masses --      8.9386                 8.9393                15.6421
 Frc consts  --      0.2453                 0.2454                 0.5957
 IR Inten    --      0.0000                 0.0000                 0.0000

                     19                     20                     21
                      A                      A                      A
 Frequencies --    277.7854               278.0089               278.0419
 Red. masses --      7.9416                 7.9723                 7.9720
 Frc consts  --      0.3611                 0.3630                 0.3631
 IR Inten    --      0.1172                 0.0760                 0.0752

                     22                     23                     24
                      A                      A                      A
 Frequencies --    353.0953               380.8269               380.8439
 Red. masses --      7.0016                 8.2543                 8.2549
 Frc consts  --      0.5143                 0.7053                 0.7054
 IR Inten    --      0.0000                 0.0000                 0.0000

                     25                     26                     27
                      A                      A                      A
 Frequencies --    407.9274               407.9350               408.0577
 Red. masses --      2.8191                 2.8191                 2.8184
 Frc consts  --      0.2764                 0.2764                 0.2765
 IR Inten    --      0.0000                 0.0000                 0.0000

                     28                     29                     30
                      A                      A                      A
 Frequencies --    450.2884               450.2985               459.3927
 Red. masses --      9.7297                 9.7290                 3.8927
 Frc consts  --      1.1623                 1.1623                 0.4840
 IR Inten    --      0.0486                 0.0480                 1.7186

                     31                     32                     33
                      A                      A                      A
 Frequencies --    465.0647               465.0859               507.9272
 Red. masses --      4.2671                 4.2674                12.1608
 Frc consts  --      0.5438                 0.5438                 1.8485
 IR Inten    --      0.0000                 0.0000                 2.6965

                     34                     35                     36
                      A                      A                      A
 Frequencies --    507.9435               567.0898               632.4834
 Red. masses --     12.1608                10.5318                 6.4691
 Frc consts  --      1.8486                 1.9955                 1.5247
 IR Inten    --      2.7089                 0.0000                 0.0001

                     37                     38                     39
                      A                      A                      A
 Frequencies --    632.7606               632.7684               667.2417
 Red. masses --      6.4742                 6.4742                12.1104
 Frc consts  --      1.5273                 1.5273                 3.1767
 IR Inten    --      0.2432                 0.2425                 0.0000

                     40                     41                     42
                      A                      A                      A
 Frequencies --    667.6064               667.6265               673.7263
 Red. masses --      7.9211                 7.9360                13.7840
 Frc consts  --      2.0801                 2.0841                 3.6863
 IR Inten    --      0.0002                 0.0000                 0.0001

                     43                     44                     45
                      A                      A                      A
 Frequencies --    680.0772               681.5666               681.5679
 Red. masses --      5.5123                 7.3057                 7.3059
 Frc consts  --      1.5021                 1.9995                 1.9996
 IR Inten    --    128.9552                16.8243                16.8274

                     46                     47                     48
                      A                      A                      A
 Frequencies --    686.9251               686.9527               710.6249
 Red. masses --      7.1419                 7.1438                 1.5895
 Frc consts  --      1.9856                 1.9863                 0.4729
 IR Inten    --      0.0003                 0.0000                 0.0001

                     49                     50                     51
                      A                      A                      A
 Frequencies --    710.6329               711.2191               712.0681
 Red. masses --      1.5895                 1.5760                 8.0154
 Frc consts  --      0.4729                 0.4697                 2.3945
 IR Inten    --      0.0182               184.2890                 0.0000

                     52                     53                     54
                      A                      A                      A
 Frequencies --    783.6205               783.6342               784.1028
 Red. masses --      2.2843                 2.2843                 2.2942
 Frc consts  --      0.8264                 0.8265                 0.8311
 IR Inten    --      0.0080                 0.0000                20.9229

                     55                     56                     57
                      A                      A                      A
 Frequencies --    822.4296               822.5733               822.5759
 Red. masses --     12.2368                12.0854                12.0850
 Frc consts  --      4.8766                 4.8179                 4.8178
 IR Inten    --      0.0000                 0.6807                 0.6796

                     58                     59                     60
                      A                      A                      A
 Frequencies --    869.0987               869.2657               869.2665
 Red. masses --      1.2471                 1.2470                 1.2470
 Frc consts  --      0.5550                 0.5551                 0.5551
 IR Inten    --      0.0000                 0.0000                 0.0000

                     61                     62                     63
                      A                      A                      A
 Frequencies --    874.9515               950.9945               950.9983
 Red. masses --     12.3590                 1.3836                 1.3836
 Frc consts  --      5.5744                 0.7373                 0.7373
 IR Inten    --      0.0000                 0.0004                 0.0000

                     64                     65                     66
                      A                      A                      A
 Frequencies --    951.1986               999.4232               999.4815
 Red. masses --      1.3842                 1.3882                 1.3879
 Frc consts  --      0.7379                 0.8169                 0.8169
 IR Inten    --      2.0160                 0.0000                 0.0000

                     67                     68                     69
                      A                      A                      A
 Frequencies --    999.4828              1008.3888              1008.4211
 Red. masses --      1.3879                 9.9348                 9.9157
 Frc consts  --      0.8169                 5.9520                 5.9410
 IR Inten    --      0.0000                29.1088                28.9200

                     70                     71                     72
                      A                      A                      A
 Frequencies --   1012.1824              1012.1833              1012.2181
 Red. masses --      1.3040                 1.3040                 1.3043
 Frc consts  --      0.7871                 0.7871                 0.7874
 IR Inten    --      0.0000                 0.0000                 0.0095

                     73                     74                     75
                      A                      A                      A
 Frequencies --   1014.0542              1015.5050              1015.5126
 Red. masses --      6.2138                 7.0685                 7.0770
 Frc consts  --      3.7647                 4.2948                 4.3000
 IR Inten    --      0.0000                 3.4252                 3.4520

                     76                     77                     78
                      A                      A                      A
 Frequencies --   1043.3805              1044.5226              1044.5418
 Red. masses --      3.3601                 3.1954                 3.1944
 Frc consts  --      2.1552                 2.0540                 2.0535
 IR Inten    --      0.0019               103.6719               103.6213

                     79                     80                     81
                      A                      A                      A
 Frequencies --   1088.2426              1088.9116              1088.9431
 Red. masses --      2.9399                 3.0953                 3.0989
 Frc consts  --      2.0513                 2.1624                 2.1651
 IR Inten    --      0.0006                72.0467                72.4770

                     82                     83                     84
                      A                      A                      A
 Frequencies --   1094.8306              1096.8341              1096.8652
 Red. masses --      1.9430                 1.7811                 1.7802
 Frc consts  --      1.3722                 1.2625                 1.2619
 IR Inten    --      0.0066                51.3341                50.7736

                     85                     86                     87
                      A                      A                      A
 Frequencies --   1138.8847              1158.0132              1158.0601
 Red. masses --      5.9906                11.1033                11.1078
 Frc consts  --      4.5781                 8.7726                 8.7769
 IR Inten    --      0.0010               800.2321               800.1667

                     88                     89                     90
                      A                      A                      A
 Frequencies --   1192.8053              1192.8094              1192.8468
 Red. masses --      1.1357                 1.1357                 1.1320
 Frc consts  --      0.9520                 0.9520                 0.9490
 IR Inten    --      0.9249                 0.9243                 0.0052

                     91                     92                     93
                      A                      A                      A
 Frequencies --   1212.2985              1212.3106              1213.8929
 Red. masses --      2.8918                 2.8373                 1.1458
 Frc consts  --      2.5040                 2.4569                 0.9947
 IR Inten    --      3.8000                 3.6770                 0.0257

                     94                     95                     96
                      A                      A                      A
 Frequencies --   1214.3076              1214.3351              1290.9867
 Red. masses --      1.5402                 1.5229                10.5698
 Frc consts  --      1.3380                 1.3231                10.3791
 IR Inten    --     11.8496                11.6511                 0.0000

                     97                     98                     99
                      A                      A                      A
 Frequencies --   1302.0147              1322.6413              1322.6658
 Red. masses --      5.3132                 4.0773                 4.0818
 Frc consts  --      5.3069                 4.2025                 4.2073
 IR Inten    --      0.0000                 0.6713                 0.6732

                    100                    101                    102
                      A                      A                      A
 Frequencies --   1338.0535              1357.2271              1357.2346
 Red. masses --      6.4350                 1.5368                 1.5306
 Frc consts  --      6.7880                 1.6679                 1.6612
 IR Inten    --      0.0000                 6.3125                 2.6185

                    103                    104                    105
                      A                      A                      A
 Frequencies --   1357.2900              1376.8583              1376.8821
 Red. masses --      1.5308                 5.0037                 5.0032
 Frc consts  --      1.6616                 5.5889                 5.5884
 IR Inten    --      3.5309              1162.4853              1161.9853

                    106                    107                    108
                      A                      A                      A
 Frequencies --   1387.2413              1464.0666              1464.1246
 Red. masses --      5.4162                 7.2587                 7.1318
 Frc consts  --      6.1411                 9.1671                 9.0075
 IR Inten    --      0.0020               172.2802               172.2296

                    109                    110                    111
                      A                      A                      A
 Frequencies --   1467.1456              1467.2751              1467.2777
 Red. masses --      2.1330                 2.3914                 2.3763
 Frc consts  --      2.7052                 3.0333                 3.0142
 IR Inten    --      0.0000                 0.0079                 0.0014

                    112                    113                    114
                      A                      A                      A
 Frequencies --   1517.5184              1530.4144              1530.4223
 Red. masses --      3.8835                 2.3868                 2.3872
 Frc consts  --      5.2692                 3.2938                 3.2943
 IR Inten    --      0.0000                38.7837                38.7963

                    115                    116                    117
                      A                      A                      A
 Frequencies --   1539.6175              1609.6931              1609.6957
 Red. masses --      3.9687                 4.9536                 4.9533
 Frc consts  --      5.5427                 7.5624                 7.5619
 IR Inten    --      0.0001                 0.0177                 0.0173

                    118                    119                    120
                      A                      A                      A
 Frequencies --   1609.7518              1643.4323              1643.4422
 Red. masses --      4.9556                 5.3064                 5.3059
 Frc consts  --      7.5659                 8.4441                 8.4434
 IR Inten    --      0.0000                67.8411                67.8266

                    121                    122                    123
                      A                      A                      A
 Frequencies --   1644.2125              1708.6853              1708.7178
 Red. masses --      5.3449                11.9790                11.9791
 Frc consts  --      8.5135                20.6061                20.6070
 IR Inten    --      0.0053                18.3882                18.3928

                    124                    125                    126
                      A                      A                      A
 Frequencies --   3157.6605              3157.6622              3157.6723
 Red. masses --      1.0855                 1.0855                 1.0855
 Frc consts  --      6.3772                 6.3772                 6.3772
 IR Inten    --      0.4357                 0.4317                 0.0076

                    127                    128                    129
                      A                      A                      A
 Frequencies --   3165.3658              3165.3749              3165.3984
 Red. masses --      1.0876                 1.0876                 1.0876
 Frc consts  --      6.4202                 6.4203                 6.4203
 IR Inten    --      0.2085                 0.9051                 0.7608

                    130                    131                    132
                      A                      A                      A
 Frequencies --   3172.8899              3172.8910              3172.9004
 Red. masses --      1.0915                 1.0915                 1.0915
 Frc consts  --      6.4742                 6.4742                 6.4743
 IR Inten    --     12.1889                12.1214                 0.0578

                    133                    134                    135
                      A                      A                      A
 Frequencies --   3181.0757              3181.1004              3181.1243
 Red. masses --      1.0947                 1.0947                 1.0947
 Frc consts  --      6.5266                 6.5267                 6.5268
 IR Inten    --      3.1940                33.6869                30.7621

                    136                    137                    138
                      A                      A                      A
 Frequencies --   3188.3325              3188.3364              3188.4090
 Red. masses --      1.0984                 1.0984                 1.0984
 Frc consts  --      6.5784                 6.5784                 6.5787
 IR Inten    --     28.1076                27.9343                 0.0435

 - Thermochemistry -
 -------------------
 Temperature   298.150 Kelvin.  Pressure   1.00000 Atm.
 Atom     1 has atomic number  6 and mass  12.00000

 Molecular mass:   432.11478 amu.
 Principal axes and moments of inertia in atomic units:
                           1         2         3
     Eigenvalues --  ******************************
           X            1.00000   0.00002   0.00000
           Y           -0.00002   1.00000  -0.00000
           Z           -0.00000   0.00000   1.00000
 This molecule is an asymmetric top.
 Rotational symmetry number  1.
 Warning -- assumption of classical behavior for rotation
           may cause significant error
 Rotational temperatures (Kelvin)      0.00448     0.00448     0.00224
 Rotational constants (GHZ):           0.09334     0.09334     0.04667
 Zero-point vibrational energy     921024.6 (Joules/Mol)
                                  220.13017 (Kcal/Mol)
 Warning -- explicit consideration of  35 degrees of freedom as
           vibrations may cause significant error
 Vibrational temperatures:     30.97    48.16    48.19    53.25    54.84
          (Kelvin)             54.87    81.64    81.66   118.74   182.18
                              214.24   214.24   253.14   253.15   276.04
                              310.52   310.54   365.79   399.67   399.99
                              400.04   508.03   547.93   547.95   586.92
                              586.93   587.10   647.86   647.88   660.96
                              669.12   669.15   730.79   730.82   815.92
                              910.00   910.40   910.41   960.01   960.54
                              960.57   969.34   978.48   980.62   980.62
                              988.33   988.37  1022.43  1022.44  1023.29
                             1024.51  1127.46  1127.47  1128.15  1183.29
                             1183.50  1183.50  1250.44  1250.68  1250.68
                             1258.86  1368.27  1368.27  1368.56  1437.95
                             1438.03  1438.03  1450.85  1450.89  1456.30
                             1456.31  1456.36  1459.00  1461.09  1461.10
                             1501.19  1502.83  1502.86  1565.74  1566.70
                             1566.75  1575.22  1578.10  1578.14  1638.60
                             1666.12  1666.19  1716.18  1716.19  1716.24
                             1744.23  1744.24  1746.52  1747.12  1747.16
                             1857.44  1873.31  1902.99  1903.02  1925.16
                             1952.75  1952.76  1952.84  1980.99  1981.03
                             1995.93  2106.47  2106.55  2110.90  2111.08
                             2111.09  2183.37  2201.92  2201.94  2215.17
                             2315.99  2315.99  2316.07  2364.53  2364.55
                             2365.66  2458.42  2458.46  4543.17  4543.17
                             4543.19  4554.26  4554.27  4554.30  4565.08
                             4565.08  4565.10  4576.86  4576.89  4576.93
                             4587.30  4587.30  4587.41

 Zero-point correction=                           0.350800 (Hartree/Particle)
 Thermal correction to Energy=                    0.375533
 Thermal correction to Enthalpy=                  0.376477
 Thermal correction to Gibbs Free Energy=         0.292765
 Sum of electronic and zero-point Energies=          -1449.859802
 Sum of electronic and thermal Energies=             -1449.835068
 Sum of electronic and thermal Enthalpies=           -1449.834124
 Sum of electronic and thermal Free Energies=        -1449.917836

                     E (Thermal)             CV                S
                      KCal/Mol        Cal/Mol-Kelvin    Cal/Mol-Kelvin
 Total                  235.650             97.741            176.187
 Electronic               0.000              0.000              0.000
 Translational            0.889              2.981             44.080
 Rotational               0.889              2.981             37.911
 Vibrational            233.873             91.779             94.195
 Vibration     1          0.593              1.985              6.488
 Vibration     2          0.594              1.983              5.612
 Vibration     3          0.594              1.983              5.611
 Vibration     4          0.594              1.982              5.413
 Vibration     5          0.594              1.982              5.355
 Vibration     6          0.594              1.982              5.354
 Vibration     7          0.596              1.975              4.567
 Vibration     8          0.596              1.975              4.567
 Vibration     9          0.600              1.961              3.830
 Vibration    10          0.611              1.927              2.997
 Vibration    11          0.618              1.904              2.686
 Vibration    12          0.618              1.904              2.686
 Vibration    13          0.628              1.872              2.371
 Vibration    14          0.628              1.872              2.371
 Vibration    15          0.634              1.851              2.210
 Vibration    16          0.645              1.817              1.994
 Vibration    17          0.645              1.817              1.994
 Vibration    18          0.665              1.756              1.701
 Vibration    19          0.679              1.715              1.547
 Vibration    20          0.679              1.714              1.546
 Vibration    21          0.679              1.714              1.546
 Vibration    22          0.729              1.569              1.152
 Vibration    23          0.751              1.511              1.036
 Vibration    24          0.751              1.511              1.036
 Vibration    25          0.772              1.453              0.934
 Vibration    26          0.773              1.453              0.934
 Vibration    27          0.773              1.453              0.934
 Vibration    28          0.809              1.360              0.795
 Vibration    29          0.809              1.360              0.795
 Vibration    30          0.817              1.340              0.768
 Vibration    31          0.823              1.328              0.752
 Vibration    32          0.823              1.328              0.751
 Vibration    33          0.863              1.232              0.639
 Vibration    34          0.863              1.232              0.639
 Vibration    35          0.923              1.102              0.510

 Optimization completed.
    -- Stationary point found.
 Normal termination of Gaussian 16 at Thu Jul 30 23:50:37 2020.
