 Gaussian 16, Revision C.01,
 Gaussian 16:  ES64L-G16RevC.01  3-Jul-2019

 --------------------------------------------------------------------
 #P B3LYP/6-311++G(d,p) EmpiricalDispersion=GD3 freq(noraman) SCF=YQC
 --------------------------------------------------------------------

 ----------------------------------------------
 Restart from N-TrisPhenyl_Nitrile_Triazine.log
 ----------------------------------------------
 Symbolic Z-matrix:
 Charge =  0 Multiplicity = 1

                         Standard orientation:
 ---------------------------------------------------------------------
 Center     Atomic      Atomic             Coordinates (Angstroms)
 Number     Number       Type             X           Y           Z
 ---------------------------------------------------------------------
      1          7           0       -0.000115   -0.000041    0.000744
      2          6           0        0.466170    1.337480    0.000521
      3          6           0       -1.391585   -0.265026    0.000374
      4          6           0        0.925018   -1.072661    0.000708
      5          6           0       -2.263220    0.511431   -0.777864
      6          6           0        1.575524    1.703759   -0.776363
      7          6           0        0.688264   -2.215972   -0.777190
      8          6           0       -1.917025   -1.307615    0.778334
      9          6           0       -3.624515    0.253592   -0.772712
     10          1           0       -1.864383    1.313994   -1.385595
     11          6           0       -0.175028    2.314244    0.777141
     12          6           0        2.032854    3.011570   -0.771221
     13          1           0        2.072032    0.956837   -1.383062
     14          6           0        2.090745   -1.006332    0.778543
     15          6           0        1.592240   -3.265925   -0.772037
     16          1           0       -0.206235   -2.271988   -1.384827
     17          6           0       -3.277805   -1.568084    0.772884
     18          1           0       -1.251257   -1.907477    1.386151
     19          6           0       -4.154729   -0.791175    0.000041
     20          1           0       -4.292943    0.850111   -1.379666
     21          6           0        0.279685    3.622991    0.771523
     22          1           0       -1.028160    2.037934    1.384032
     23          6           0        1.392032    3.993585    0.000046
     24          1           0        2.884500    3.291907   -1.377142
     25          6           0        2.996778   -2.054498    0.773031
     26          1           0        2.277419   -0.129829    1.386320
     27          6           0        2.762371   -3.202492    0.000359
     28          1           0        1.409794   -4.143160   -1.378834
     29          1           0       -3.680386   -2.368508    1.379741
     30          1           0       -0.213120    4.372155    1.377268
     31          1           0        3.891360   -2.002822    1.379726
     32          6           0       -5.601629   -1.066674   -0.000099
     33          7           0       -6.057495   -2.091767    0.745076
     34          6           0       -7.370738   -2.287543    0.703630
     35          7           0       -6.402142   -0.280808   -0.745428
     36          6           0       -7.695441   -0.581367   -0.704317
     37          7           0       -8.252239   -1.571402   -0.000446
     38          1           0       -8.363211    0.036496   -1.298576
     39          1           0       -7.764851   -3.107612    1.297748
     40          6           0        1.877001    5.384338   -0.000138
     41          7           0        1.216010    6.292240    0.743322
     42          6           0        1.703341    7.527329    0.701947
     43          7           0        2.959113    5.684083   -0.743860
     44          6           0        3.345603    6.954352   -0.702852
     45          7           0        2.765583    7.932070   -0.000516
     46          1           0        4.215632    7.223235   -1.295783
     47          1           0        1.189330    8.279102    1.294773
     48          6           0        3.724553   -4.317657    0.000042
     49          7           0        4.840471   -4.199642    0.744841
     50          6           0        5.666881   -5.238845    0.703085
     51          7           0        3.444276   -5.403890   -0.745262
     52          6           0        4.351491   -6.373391   -0.704518
     53          7           0        5.487514   -6.360314   -0.001021
     54          1           0        4.150330   -7.260651   -1.298759
     55          1           0        6.574309   -5.169930    1.296922
 ---------------------------------------------------------------------

 SCF Done:  E(RB3LYP) =  -1587.69151287     a.u. after    7 cycles
 SCF Done:  E(RB3LYP) =  -1587.69153044     A.U. after   10 cycles

 The electronic state is 1-A.
 Alpha  occ. eigenvalues --  -14.37784 -14.33787 -14.33786 -14.33785 -14.33785
 Alpha  occ. eigenvalues --  -14.33784 -14.33783 -14.33607 -14.33607 -14.33605
 Alpha  occ. eigenvalues --  -10.27922 -10.27922 -10.27920 -10.26788 -10.26788
 Alpha  occ. eigenvalues --  -10.26788 -10.26788 -10.26786 -10.26786 -10.24550
 Alpha  occ. eigenvalues --  -10.24549 -10.24548 -10.20272 -10.20272 -10.20269
 Alpha  occ. eigenvalues --  -10.19788 -10.19787 -10.19786 -10.19784 -10.19784
 Alpha  occ. eigenvalues --  -10.19782 -10.19606 -10.19606 -10.19606 -10.19605
 Alpha  occ. eigenvalues --  -10.19604 -10.19604  -1.04146  -1.04145  -1.04144
 Alpha  occ. eigenvalues --   -1.00142  -0.92427  -0.92425  -0.92381  -0.91802
 Alpha  occ. eigenvalues --   -0.91801  -0.91800  -0.88382  -0.88381  -0.86484
 Alpha  occ. eigenvalues --   -0.79726  -0.79725  -0.77398  -0.77397  -0.77269
 Alpha  occ. eigenvalues --   -0.76099  -0.70808  -0.70807  -0.70073  -0.70047
 Alpha  occ. eigenvalues --   -0.70046  -0.68027  -0.64616  -0.64615  -0.63279
 Alpha  occ. eigenvalues --   -0.62535  -0.62535  -0.59868  -0.56922  -0.56922
 Alpha  occ. eigenvalues --   -0.56539  -0.56442  -0.56357  -0.56357  -0.54727
 Alpha  occ. eigenvalues --   -0.54727  -0.49239  -0.49239  -0.48580  -0.48578
 Alpha  occ. eigenvalues --   -0.47675  -0.47674  -0.47029  -0.47028  -0.47019
 Alpha  occ. eigenvalues --   -0.46341  -0.45387  -0.45387  -0.44915  -0.44828
 Alpha  occ. eigenvalues --   -0.44827  -0.44243  -0.43862  -0.43861  -0.40718
 Alpha  occ. eigenvalues --   -0.40718  -0.40141  -0.40140  -0.39363  -0.39361
 Alpha  occ. eigenvalues --   -0.38707  -0.38699  -0.38698  -0.37872  -0.36774
 Alpha  occ. eigenvalues --   -0.36772  -0.36158  -0.35087  -0.35086  -0.34462
 Alpha  occ. eigenvalues --   -0.34462  -0.34460  -0.31955  -0.28776  -0.28747
 Alpha  occ. eigenvalues --   -0.28746  -0.28705  -0.28124  -0.28123  -0.28113
 Alpha  occ. eigenvalues --   -0.28072  -0.28072  -0.27356  -0.27355  -0.21676
 Alpha virt. eigenvalues --   -0.09386  -0.09385  -0.07443  -0.06842  -0.06641
 Alpha virt. eigenvalues --   -0.06640  -0.04537  -0.02334  -0.02333  -0.01474
 Alpha virt. eigenvalues --   -0.01473  -0.01392  -0.00418  -0.00417   0.00260

 Mulliken charges:
               1
     1  N    0.842038
     2  C   -0.782988
     3  C   -0.783425
     4  C   -0.782985
     5  C   -0.114959
     6  C   -0.115222
     7  C   -0.115411
     8  C   -0.115214
     9  C   -0.307340
    10  H    0.183629
    11  C   -0.115356
    12  C   -0.307307
    13  H    0.183713
    14  C   -0.114865
    15  C   -0.307317
    16  H    0.183696
    17  C   -0.307266
    18  H    0.183648
    19  C    0.374610
    20  H    0.239820
    21  C   -0.307365
    22  H    0.183698
    23  C    0.375145
    24  H    0.239786
    25  C   -0.307538
    26  H    0.183633
    27  C    0.374680
    28  H    0.239811
    29  H    0.239808
    30  H    0.239756
    31  H    0.239803
    32  C   -0.291503
    33  N    0.000219
    34  C    0.074156
    35  N    0.000218
    36  C    0.074163
    37  N   -0.143633
    38  H    0.206080
    39  H    0.206080
    40  C   -0.291494
    41  N    0.000221
    42  C    0.074154
    43  N    0.000222
    44  C    0.074142
    45  N   -0.143652
    46  H    0.206073
    47  H    0.206070
    48  C   -0.291518
    49  N    0.000236
    50  C    0.074151
    51  N    0.000226
    52  C    0.074162
    53  N   -0.143646
    54  H    0.206078
    55  H    0.206079
 Sum of Mulliken charges =   0.00000

 Dipole moment (field-independent basis, Debye):
    X=             -0.0018    Y=             -0.0026    Z=              0.0005  Tot=              0.0032
 Quadrupole moment (field-independent basis, Debye-Ang):
   XX=           -228.4231   YY=           -228.4417   ZZ=           -208.6175
   XY=             -0.0063   XZ=              0.0026   YZ=             -0.0026

  Exact polarizability:     604.447      -0.005     604.405       0.004      -0.000     244.274
 Approx polarizability:     829.098      -0.026     828.996       0.019      -0.004     445.782

                      1                      2                      3
                      A                      A                      A
 Frequencies --     18.0498                18.6828                18.8383
 Red. masses --      7.7504                 7.7845                 7.8313
 Frc consts  --      0.0015                 0.0016                 0.0016
 IR Inten    --      0.1157                 0.2396                 0.2191

                      4                      5                      6
                      A                      A                      A
 Frequencies --     25.4234                26.0742                35.3232
 Red. masses --      5.2373                 5.2215                 5.5003
 Frc consts  --      0.0020                 0.0021                 0.0040
 IR Inten    --      0.9956                 1.0044                 0.0019

                      7                      8                      9
                      A                      A                      A
 Frequencies --     58.3796                58.5669                72.1002
 Red. masses --      4.7054                 4.7163                 7.9996
 Frc consts  --      0.0094                 0.0095                 0.0245
 IR Inten    --      1.9152                 1.8937                 0.0169

                     10                     11                     12
                      A                      A                      A
 Frequencies --     81.9566                82.1221               103.6519
 Red. masses --      6.5569                 6.5184                 3.7473
 Frc consts  --      0.0259                 0.0259                 0.0237
 IR Inten    --      2.7673                 2.8037                 0.0003

                     13                     14                     15
                      A                      A                      A
 Frequencies --    125.4411               125.5112               129.3020
 Red. masses --      7.2258                 7.2254                 7.6923
 Frc consts  --      0.0670                 0.0671                 0.0758
 IR Inten    --      0.1004                 0.1014                 0.3058

                     16                     17                     18
                      A                      A                      A
 Frequencies --    157.5767               175.1382               175.1531
 Red. masses --      9.1008                 8.5257                 8.5271
 Frc consts  --      0.1331                 0.1541                 0.1541
 IR Inten    --      0.0000                 1.4701                 1.4705

                     19                     20                     21
                      A                      A                      A
 Frequencies --    182.4075               272.8629               272.9137
 Red. masses --      7.2878                 7.0634                 7.0630
 Frc consts  --      0.1429                 0.3099                 0.3099
 IR Inten    --      0.0675                 0.4397                 0.4414

                     22                     23                     24
                      A                      A                      A
 Frequencies --    289.6107               313.1608               313.1711
 Red. masses --      6.2908                 6.4444                 6.4429
 Frc consts  --      0.3109                 0.3724                 0.3723
 IR Inten    --      0.0189                 5.3825                 5.3799

                     25                     26                     27
                      A                      A                      A
 Frequencies --    355.0444               355.0632               355.1249
 Red. masses --      3.4361                 3.4359                 3.4362
 Frc consts  --      0.2552                 0.2552                 0.2553
 IR Inten    --      0.0679                 0.0636                 0.0052

                     28                     29                     30
                      A                      A                      A
 Frequencies --    393.6716               393.7105               419.6018
 Red. masses --      6.1120                 6.1147                 7.3864
 Frc consts  --      0.5581                 0.5584                 0.7662
 IR Inten    --      0.4463                 0.4371                10.1483

                     31                     32                     33
                      A                      A                      A
 Frequencies --    421.6313               421.6433               428.0538
 Red. masses --      3.0114                 3.0125                 3.0541
 Frc consts  --      0.3154                 0.3156                 0.3297
 IR Inten    --     15.1382                15.1826                 0.0016

                     34                     35                     36
                      A                      A                      A
 Frequencies --    457.4825               472.5466               472.5651
 Red. masses --      7.0139                 4.6738                 4.6748
 Frc consts  --      0.8649                 0.6149                 0.6151
 IR Inten    --      0.0000                 0.5837                 0.5715

                     37                     38                     39
                      A                      A                      A
 Frequencies --    483.8905               507.2452               507.2918
 Red. masses --      4.3190                 3.6377                 3.6386
 Frc consts  --      0.5958                 0.5515                 0.5517
 IR Inten    --      4.6654                55.6445                55.5667

                     40                     41                     42
                      A                      A                      A
 Frequencies --    522.7812               582.1911               582.2282
 Red. masses --      4.1074                 2.6734                 2.6748
 Frc consts  --      0.6614                 0.5339                 0.5342
 IR Inten    --     11.9645                21.5065                21.5330

                     43                     44                     45
                      A                      A                      A
 Frequencies --    583.0349               643.2402               643.2765
 Red. masses --      2.5175                 6.4048                 6.4056
 Frc consts  --      0.5042                 1.5614                 1.5617
 IR Inten    --      0.9373                 0.8317                 0.8335

                     46                     47                     48
                      A                      A                      A
 Frequencies --    650.0687               665.4304               665.4636
 Red. masses --      7.0091                 7.4389                 7.4401
 Frc consts  --      1.7451                 1.9407                 1.9412
 IR Inten    --      0.1265                 8.6874                 8.7052

                     49                     50                     51
                      A                      A                      A
 Frequencies --    712.3506               712.3611               712.4052
 Red. masses --      9.2957                 9.2956                 9.2938
 Frc consts  --      2.7792                 2.7793                 2.7791
 IR Inten    --     10.7927                10.9128                14.4923

                     52                     53                     54
                      A                      A                      A
 Frequencies --    714.0455               743.5029               747.0685
 Red. masses --      7.9213                 3.9259                 4.1028
 Frc consts  --      2.3796                 1.2787                 1.3491
 IR Inten    --      0.0000                 2.2911                19.0048

                     55                     56                     57
                      A                      A                      A
 Frequencies --    747.1080               787.7846               787.8000
 Red. masses --      4.1068                 6.1684                 6.1696
 Frc consts  --      1.3506                 2.2555                 2.2560
 IR Inten    --     18.9940                53.1386                53.1469

                     58                     59                     60
                      A                      A                      A
 Frequencies --    808.1074               832.8604               832.8840
 Red. masses --      6.7582                 2.8034                 2.8067
 Frc consts  --      2.6003                 1.1457                 1.1471
 IR Inten    --      0.0000                 3.7090                 3.7560

                     61                     62                     63
                      A                      A                      A
 Frequencies --    833.4730               848.7048               848.7485
 Red. masses --      2.9257                 1.3005                 1.3010
 Frc consts  --      1.1975                 0.5519                 0.5522
 IR Inten    --    117.6302                 5.1046                 5.1172

                     64                     65                     66
                      A                      A                      A
 Frequencies --    853.2051               879.8194               879.9126
 Red. masses --      1.2468                 2.4730                 2.4691
 Frc consts  --      0.5347                 1.1279                 1.1264
 IR Inten    --      0.0055                 0.5523                 0.5474

                     67                     68                     69
                      A                      A                      A
 Frequencies --    881.7002               942.3909               942.4330
 Red. masses --      2.3533                 5.4634                 5.4661
 Frc consts  --      1.0779                 2.8588                 2.8604
 IR Inten    --     13.3103                 0.0023                 0.0022

                     70                     71                     72
                      A                      A                      A
 Frequencies --    974.8947               974.9792               974.9874
 Red. masses --      1.5665                 1.5702                 1.5701
 Frc consts  --      0.8772                 0.8794                 0.8794
 IR Inten    --      1.9198                 0.9263                 0.9262

                     73                     74                     75
                      A                      A                      A
 Frequencies --    995.1797               995.9324               996.0314
 Red. masses --      1.3405                 1.3440                 1.3437
 Frc consts  --      0.7822                 0.7854                 0.7854
 IR Inten    --      0.2125                 0.0648                 0.0634

                     76                     77                     78
                      A                      A                      A
 Frequencies --   1004.2692              1004.3087              1005.4213
 Red. masses --      1.3799                 1.3799                 1.3589
 Frc consts  --      0.8200                 0.8201                 0.8094
 IR Inten    --      9.6317                 9.6915                 0.0318

                     79                     80                     81
                      A                      A                      A
 Frequencies --   1007.9756              1007.9782              1008.6296
 Red. masses --     10.9390                10.9729                12.0517
 Frc consts  --      6.5483                 6.5686                 7.2237
 IR Inten    --     70.4808                70.5368                 0.0005

                     82                     83                     84
                      A                      A                      A
 Frequencies --   1031.3623              1031.9305              1031.9438
 Red. masses --      3.0870                 2.9247                 2.9260
 Frc consts  --      1.9347                 1.8350                 1.8358
 IR Inten    --      0.0000                 0.1591                 0.1524

                     85                     86                     87
                      A                      A                      A
 Frequencies --   1034.2167              1034.2200              1034.2271
 Red. masses --      1.4781                 1.4780                 1.4780
 Frc consts  --      0.9315                 0.9314                 0.9314
 IR Inten    --      0.0003                 0.0002                 0.0002

                     88                     89                     90
                      A                      A                      A
 Frequencies --   1094.4414              1097.0242              1097.0971
 Red. masses --      4.2073                 3.6806                 3.6809
 Frc consts  --      2.9692                 2.6098                 2.6103
 IR Inten    --      0.0131                40.7012                40.6445

                     91                     92                     93
                      A                      A                      A
 Frequencies --   1145.4792              1148.0071              1148.0739
 Red. masses --      1.5758                 1.5952                 1.5965
 Frc consts  --      1.2182                 1.2387                 1.2398
 IR Inten    --      7.0649                 0.4060                 0.4151

                     94                     95                     96
                      A                      A                      A
 Frequencies --   1175.0530              1175.2978              1175.3171
 Red. masses --      4.7190                 4.4058                 4.4016
 Frc consts  --      3.8390                 3.5857                 3.5824
 IR Inten    --      7.1516                 1.2005                 1.2140

                     97                     98                     99
                      A                      A                      A
 Frequencies --   1178.8955              1178.9108              1179.0212
 Red. masses --      2.8926                 2.8929                 2.9295
 Frc consts  --      2.3686                 2.3689                 2.3993
 IR Inten    --      7.0482                 6.9461                 0.0743

                    100                    101                    102
                      A                      A                      A
 Frequencies --   1203.0766              1210.2967              1210.4124
 Red. masses --      1.9063                 1.1780                 1.1779
 Frc consts  --      1.6257                 1.0167                 1.0168
 IR Inten    --      0.0052               216.1672               216.5244

                    103                    104                    105
                      A                      A                      A
 Frequencies --   1220.7874              1265.3658              1269.3742
 Red. masses --      1.5947                 4.0172                 3.5047
 Frc consts  --      1.4003                 3.7897                 3.3272
 IR Inten    --      0.0024                 0.0464                 5.6734

                    106                    107                    108
                      A                      A                      A
 Frequencies --   1269.3837              1302.3354              1302.3574
 Red. masses --      3.5041                 3.4189                 3.4228
 Frc consts  --      3.3267                 3.4165                 3.4205
 IR Inten    --      5.6624               471.2415               472.7211

                    109                    110                    111
                      A                      A                      A
 Frequencies --   1314.6521              1343.4444              1344.0045
 Red. masses --      2.4073                 1.9094                 1.5316
 Frc consts  --      2.4513                 2.0305                 1.6300
 IR Inten    --      2.6500                 3.4129                55.8804

                    112                    113                    114
                      A                      A                      A
 Frequencies --   1344.0885              1354.9906              1355.0305
 Red. masses --      1.5310                 6.3653                 6.3351
 Frc consts  --      1.6296                 6.8856                 6.8534
 IR Inten    --     55.3050               189.0787               188.7988

                    115                    116                    117
                      A                      A                      A
 Frequencies --   1361.5481              1361.5817              1364.0729
 Red. masses --      2.6677                 2.6669                 2.5738
 Frc consts  --      2.9137                 2.9130                 2.8216
 IR Inten    --    171.6871               171.0588                 0.0073

                    118                    119                    120
                      A                      A                      A
 Frequencies --   1418.5032              1418.6129              1418.6195
 Red. masses --      1.5687                 1.5782                 1.5781
 Frc consts  --      1.8597                 1.8712                 1.8712
 IR Inten    --     39.1870                24.6140                24.6274

                    121                    122                    123
                      A                      A                      A
 Frequencies --   1443.2130              1443.7415              1443.7572
 Red. masses --      3.0634                 2.3367                 2.3364
 Frc consts  --      3.7593                 2.8696                 2.8694
 IR Inten    --      0.4431              1347.9612              1347.0372

                    124                    125                    126
                      A                      A                      A
 Frequencies --   1452.9259              1456.8767              1456.9237
 Red. masses --      2.4356                 3.1279                 3.1272
 Frc consts  --      3.0293                 3.9116                 3.9110
 IR Inten    --      0.0016                 5.1902                 5.2557

                    127                    128                    129
                      A                      A                      A
 Frequencies --   1542.3403              1542.3565              1543.5430
 Red. masses --      2.7409                 2.7415                 2.7002
 Frc consts  --      3.8415                 3.8425                 3.7903
 IR Inten    --     37.3510                37.4220                 0.0141

                    130                    131                    132
                      A                      A                      A
 Frequencies --   1548.0887              1552.8238              1552.8482
 Red. masses --      6.9203                 7.0978                 7.0958
 Frc consts  --      9.7717                10.0836                10.0812
 IR Inten    --    120.1751                46.5308                46.6107

                    133                    134                    135
                      A                      A                      A
 Frequencies --   1590.5652              1590.5754              1598.4701
 Red. masses --      5.0700                 5.0710                 6.9120
 Frc consts  --      7.5572                 7.5588                10.4055
 IR Inten    --   1629.2618              1629.1909                58.1591

                    136                    137                    138
                      A                      A                      A
 Frequencies --   1600.3281              1609.8084              1609.8565
 Red. masses --      5.5146                 7.3290                 7.3286
 Frc consts  --      8.3212                11.1903                11.1904
 IR Inten    --      0.0014                16.3983                16.3255

                    139                    140                    141
                      A                      A                      A
 Frequencies --   1639.0772              1639.1032              1654.9620
 Red. masses --      5.7196                 5.7205                 5.7648
 Frc consts  --      9.0534                 9.0552                 9.3027
 IR Inten    --    116.2896               116.3611                 0.0002

                    142                    143                    144
                      A                      A                      A
 Frequencies --   3155.2237              3155.2453              3155.2662
 Red. masses --      1.0902                 1.0902                 1.0902
 Frc consts  --      6.3945                 6.3946                 6.3946
 IR Inten    --     25.3916                24.5805                24.0168

                    145                    146                    147
                      A                      A                      A
 Frequencies --   3158.5616              3158.5852              3158.6988
 Red. masses --      1.0945                 1.0945                 1.0945
 Frc consts  --      6.4333                 6.4334                 6.4342
 IR Inten    --     52.1365                51.7975                 1.0071

                    148                    149                    150
                      A                      A                      A
 Frequencies --   3186.7768              3186.8334              3187.2502
 Red. masses --      1.0895                 1.0895                 1.0891
 Frc consts  --      6.5191                 6.5193                 6.5187
 IR Inten    --     11.6184                11.6603                 0.1077

                    151                    152                    153
                      A                      A                      A
 Frequencies --   3187.5805              3188.1309              3188.1929
 Red. masses --      1.0893                 1.0892                 1.0891
 Frc consts  --      6.5214                 6.5225                 6.5226
 IR Inten    --      1.6641                 1.4938                 1.4514

                    154                    155                    156
                      A                      A                      A
 Frequencies --   3206.5547              3206.6368              3206.6715
 Red. masses --      1.0931                 1.0931                 1.0931
 Frc consts  --      6.6218                 6.6221                 6.6222
 IR Inten    --      0.7848                 0.6903                 0.7284

                    157                    158                    159
                      A                      A                      A
 Frequencies --   3207.6079              3207.6362              3207.7826
 Red. masses --      1.0943                 1.0943                 1.0943
 Frc consts  --      6.6338                 6.6339                 6.6345
 IR Inten    --      4.6437                 4.5804                 0.1094

 - Thermochemistry -
 -------------------
 Temperature   298.150 Kelvin.  Pressure   1.00000 Atm.
 Atom     1 has atomic number  7 and mass  14.00307

 Molecular mass:   482.17159 amu.
 Principal axes and moments of inertia in atomic units:
                           1         2         3
     Eigenvalues --  ******************************
           X            0.99997  -0.00719   0.00000
           Y            0.00719   0.99997  -0.00000
           Z           -0.00000   0.00000   1.00000
 This molecule is an asymmetric top.
 Rotational symmetry number  1.
 Warning -- assumption of classical behavior for rotation
           may cause significant error
 Rotational temperatures (Kelvin)      0.00326     0.00325     0.00167
 Rotational constants (GHZ):           0.06783     0.06782     0.03486
 Zero-point vibrational energy    1086074.2 (Joules/Mol)
                                  259.57797 (Kcal/Mol)
 Warning -- explicit consideration of  43 degrees of freedom as
           vibrations may cause significant error
 Vibrational temperatures:     25.97    26.88    27.10    36.58    37.52
          (Kelvin)             50.82    84.00    84.26   103.74   117.92
                              118.16   149.13   180.48   180.58   186.04
                              226.72   251.98   252.01   262.44   392.59
                              392.66   416.69   450.57   450.58   510.83
                              510.86   510.95   566.41   566.46   603.71
                              606.63   606.65   615.87   658.22   679.89
                              679.92   696.21   729.81   729.88   752.17
                              837.64   837.70   838.86   925.48   925.53
                              935.30   957.41   957.45  1024.91  1024.93
                             1024.99  1027.35  1069.73  1074.86  1074.92
                             1133.45  1133.47  1162.69  1198.30  1198.33
                             1199.18  1221.10  1221.16  1227.57  1265.86
                             1266.00  1268.57  1355.89  1355.95  1402.66
                             1402.78  1402.79  1431.84  1432.92  1433.07
                             1444.92  1444.98  1446.58  1450.25  1450.26
                             1451.19  1483.90  1484.72  1484.74  1488.01
                             1488.01  1488.02  1574.66  1578.37  1578.48
                             1648.09  1651.73  1651.82  1690.64  1690.99
                             1691.02  1696.17  1696.19  1696.35  1730.96
                             1741.35  1741.51  1756.44  1820.58  1826.35
                             1826.36  1873.77  1873.80  1891.49  1932.92
                             1933.72  1933.84  1949.53  1949.59  1958.96
                             1959.01  1962.60  2040.91  2041.07  2041.08
                             2076.46  2077.22  2077.24  2090.44  2096.12
                             2096.19  2219.08  2219.11  2220.81  2227.35
                             2234.17  2234.20  2288.47  2288.48  2299.84
                             2302.52  2316.16  2316.22  2358.27  2358.30
                             2381.12  4539.66  4539.69  4539.72  4544.47
                             4544.50  4544.66  4585.06  4585.14  4585.74
                             4586.22  4587.01  4587.10  4613.52  4613.64
                             4613.69  4615.03  4615.07  4615.28

 Zero-point correction=                           0.413664 (Hartree/Particle)
 Thermal correction to Energy=                    0.441649
 Thermal correction to Enthalpy=                  0.442593
 Thermal correction to Gibbs Free Energy=         0.349533
 Sum of electronic and zero-point Energies=          -1587.277867
 Sum of electronic and thermal Energies=             -1587.249881
 Sum of electronic and thermal Enthalpies=           -1587.248937
 Sum of electronic and thermal Free Energies=        -1587.341997

                     E (Thermal)             CV                S
                      KCal/Mol        Cal/Mol-Kelvin    Cal/Mol-Kelvin
 Total                  277.139            108.775            195.861
 Electronic               0.000              0.000              0.000
 Translational            0.889              2.981             44.407
 Rotational               0.889              2.981             38.836
 Vibrational            275.362            102.813            112.618
 Vibration     1          0.593              1.986              6.838
 Vibration     2          0.593              1.986              6.769
 Vibration     3          0.593              1.986              6.753
 Vibration     4          0.593              1.985              6.158
 Vibration     5          0.593              1.985              6.108
 Vibration     6          0.594              1.982              5.505
 Vibration     7          0.596              1.974              4.511
 Vibration     8          0.596              1.974              4.505
 Vibration     9          0.598              1.967              4.095
 Vibration    10          0.600              1.962              3.843
 Vibration    11          0.600              1.961              3.840
 Vibration    12          0.605              1.946              3.384
 Vibration    13          0.610              1.928              3.015
 Vibration    14          0.610              1.928              3.014
 Vibration    15          0.612              1.924              2.956
 Vibration    16          0.621              1.894              2.579
 Vibration    17          0.627              1.873              2.380
 Vibration    18          0.627              1.873              2.379
 Vibration    19          0.630              1.864              2.304
 Vibration    20          0.676              1.723              1.578
 Vibration    21          0.676              1.723              1.578
 Vibration    22          0.686              1.693              1.476
 Vibration    23          0.701              1.649              1.346
 Vibration    24          0.701              1.649              1.346
 Vibration    25          0.731              1.565              1.144
 Vibration    26          0.731              1.565              1.144
 Vibration    27          0.731              1.565              1.143
 Vibration    28          0.761              1.484              0.986
 Vibration    29          0.761              1.484              0.986
 Vibration    30          0.782              1.428              0.893
 Vibration    31          0.784              1.423              0.886
 Vibration    32          0.784              1.423              0.886
 Vibration    33          0.790              1.409              0.865
 Vibration    34          0.816              1.344              0.773
 Vibration    35          0.829              1.311              0.730
 Vibration    36          0.829              1.311              0.730
 Vibration    37          0.840              1.286              0.700
 Vibration    38          0.862              1.234              0.640
 Vibration    39          0.862              1.234              0.640
 Vibration    40          0.878              1.200              0.604
 Vibration    41          0.939              1.070              0.481
 Vibration    42          0.939              1.070              0.481
 Vibration    43          0.940              1.068              0.480

 Normal termination of Gaussian 16 at Tue Aug 11 13:44:54 2020.
