 Gaussian 16, Revision C.01,
 Gaussian 16:  ES64L-G16RevC.01  3-Jul-2019

 --------------------------------------------------------------------
 #P B3LYP/6-311++G(d,p) EmpiricalDispersion=GD3 freq(noraman) SCF=YQC
 --------------------------------------------------------------------

 ---------------------------------------
 Restart from TPG_PrimaryAmine_Imine.log
 ---------------------------------------
 Symbolic Z-matrix:
 Charge =  0 Multiplicity = 1

                         Standard orientation:
 ---------------------------------------------------------------------
 Center     Atomic      Atomic             Coordinates (Angstroms)
 Number     Number       Type             X           Y           Z
 ---------------------------------------------------------------------
      1          6           0       -1.073275   -0.940208   -0.000150
      2          6           0       -1.318081    0.459461   -0.000110
      3          8           0       -2.603040    0.861898   -0.000111
      4          6           0       -0.277458    1.399570   -0.000131
      5          6           0        1.057080    0.911686   -0.000113
      6          8           0        2.048161    1.823171   -0.000025
      7          6           0        1.350931   -0.459584   -0.000179
      8          6           0        0.261187   -1.371414   -0.000213
      9          8           0        0.554995   -2.685484   -0.000392
     10          1           0        1.572439    2.683992    0.000251
     11          1           0        1.538331   -2.703936   -0.000484
     12          1           0       -3.110536    0.019437   -0.000002
     13          7           0       -2.241898   -1.692759    0.000031
     14          6           0       -2.321338   -2.975348   -0.000261
     15          6           0       -3.608480   -3.676068   -0.000052
     16          6           0       -3.609398   -5.079402   -0.000672
     17          6           0       -4.805818   -5.791675   -0.000498
     18          6           0       -6.021271   -5.110199    0.000311
     19          6           0       -6.033033   -3.712009    0.000945
     20          6           0       -4.840729   -3.001177    0.000772
     21          1           0       -1.433396   -3.605655   -0.000811
     22          1           0       -2.663482   -5.611532   -0.001295
     23          1           0       -4.789630   -6.875660   -0.000980
     24          1           0       -6.954795   -5.661475    0.000448
     25          1           0       -6.977798   -3.179830    0.001583
     26          1           0       -4.848441   -1.918486    0.001292
     27          7           0       -0.344987    2.787914   -0.000088
     28          6           0       -1.416085    3.497914   -0.000237
     29          6           0       -1.379483    4.962959   -0.000067
     30          6           0       -2.594381    5.665333   -0.000242
     31          6           0       -2.613126    7.057612   -0.000125
     32          6           0       -1.415279    7.769590    0.000178
     33          6           0       -0.198508    7.080745    0.000357
     34          6           0       -0.178952    5.692754    0.000237
     35          1           0       -2.405861    3.043998   -0.000485
     36          1           0       -3.528132    5.112128   -0.000485
     37          1           0       -3.560024    7.585501   -0.000264
     38          1           0       -1.426000    8.853683    0.000267
     39          1           0        0.734720    7.632904    0.000584
     40          1           0        0.762581    5.158148    0.000382
     41          7           0        2.587029   -1.095231   -0.000114
     42          6           0        3.737441   -0.522578   -0.000002
     43          6           0        4.987918   -1.286793    0.000083
     44          6           0        6.203631   -0.585833   -0.000216
     45          6           0        7.418723   -1.265764   -0.000152
     46          6           0        7.436395   -2.659132    0.000232
     47          6           0        6.231462   -3.368483    0.000557
     48          6           0        5.019680   -2.691393    0.000491
     49          1           0        3.839303    0.561566   -0.000104
     50          1           0        6.191411    0.499422   -0.000495
     51          1           0        8.349341   -0.709679   -0.000387
     52          1           0        8.380613   -3.191886    0.000293
     53          1           0        6.243021   -4.452764    0.000879
     54          1           0        4.085899   -3.239419    0.000778
 ---------------------------------------------------------------------

 SCF Done:  E(RB3LYP) =  -1431.86973638     a.u. after    7 cycles
 SCF Done:  E(RB3LYP) =  -1431.86974762     A.U. after    9 cycles

 The electronic state is 1-A.
 Alpha  occ. eigenvalues --  -19.16188 -19.16188 -19.16186 -14.32828 -14.32828
 Alpha  occ. eigenvalues --  -14.32828 -10.25363 -10.25363 -10.25362 -10.22093
 Alpha  occ. eigenvalues --  -10.22092 -10.22092 -10.21090 -10.21090 -10.21088
 Alpha  occ. eigenvalues --  -10.19287 -10.19286 -10.19285 -10.18725 -10.18725
 Alpha  occ. eigenvalues --  -10.18724 -10.18672 -10.18672 -10.18672 -10.18530
 Alpha  occ. eigenvalues --  -10.18530 -10.18530 -10.18519 -10.18519 -10.18519
 Alpha  occ. eigenvalues --  -10.18433 -10.18433 -10.18432  -1.08667  -1.08151
 Alpha  occ. eigenvalues --   -1.08150  -0.94329  -0.94329  -0.94305  -0.87168
 Alpha  occ. eigenvalues --   -0.86912  -0.86912  -0.84316  -0.78577  -0.78577
 Alpha  occ. eigenvalues --   -0.76949  -0.75971  -0.75970  -0.75905  -0.73891
 Alpha  occ. eigenvalues --   -0.73890  -0.67180  -0.67179  -0.67088  -0.62898
 Alpha  occ. eigenvalues --   -0.62898  -0.62103  -0.61507  -0.61507  -0.61368
 Alpha  occ. eigenvalues --   -0.58577  -0.56714  -0.56714  -0.54174  -0.52697
 Alpha  occ. eigenvalues --   -0.52696  -0.52488  -0.52037  -0.52037  -0.50794
 Alpha  occ. eigenvalues --   -0.48974  -0.48974  -0.46999  -0.46998  -0.46748
 Alpha  occ. eigenvalues --   -0.46388  -0.45029  -0.44613  -0.44612  -0.43523
 Alpha  occ. eigenvalues --   -0.43523  -0.43455  -0.43186  -0.43185  -0.42757
 Alpha  occ. eigenvalues --   -0.42001  -0.42001  -0.39601  -0.39600  -0.39390
 Alpha  occ. eigenvalues --   -0.39389  -0.39283  -0.38507  -0.36549  -0.36548
 Alpha  occ. eigenvalues --   -0.36488  -0.36138  -0.36137  -0.35591  -0.35562
 Alpha  occ. eigenvalues --   -0.35562  -0.35312  -0.30110  -0.28285  -0.27850
 Alpha  occ. eigenvalues --   -0.27850  -0.27768  -0.27768  -0.26755  -0.26739
 Alpha  occ. eigenvalues --   -0.26739  -0.25132  -0.20851  -0.20851
 Alpha virt. eigenvalues --   -0.07314  -0.07314  -0.07198  -0.02336  -0.02336
 Alpha virt. eigenvalues --   -0.02308  -0.01084  -0.00684  -0.00684   0.00263
 Alpha virt. eigenvalues --    0.00263   0.00351   0.00352   0.00357   0.01162

 Mulliken charges:
               1
     1  C    0.185464
     2  C   -0.380742
     3  O   -0.232122
     4  C    0.185641
     5  C   -0.380731
     6  O   -0.232001
     7  C    0.185375
     8  C   -0.380734
     9  O   -0.232052
    10  H    0.448607
    11  H    0.448512
    12  H    0.448779
    13  N    0.036218
    14  C    0.059533
    15  C    0.510077
    16  C   -0.474282
    17  C   -0.471984
    18  C   -0.315982
    19  C   -0.256943
    20  C   -0.029907
    21  H    0.210589
    22  H    0.150128
    23  H    0.176673
    24  H    0.145927
    25  H    0.194426
    26  H    0.044305
    27  N    0.036187
    28  C    0.059296
    29  C    0.510057
    30  C   -0.474343
    31  C   -0.471972
    32  C   -0.315978
    33  C   -0.256964
    34  C   -0.029824
    35  H    0.210572
    36  H    0.150132
    37  H    0.176671
    38  H    0.145929
    39  H    0.194422
    40  H    0.044363
    41  N    0.036248
    42  C    0.059353
    43  C    0.509991
    44  C   -0.474246
    45  C   -0.471923
    46  C   -0.315970
    47  C   -0.256910
    48  C   -0.029941
    49  H    0.210588
    50  H    0.150123
    51  H    0.176671
    52  H    0.145928
    53  H    0.194423
    54  H    0.044343
 Sum of Mulliken charges =   0.00000

 Dipole moment (field-independent basis, Debye):
    X=             -0.0003    Y=             -0.0001    Z=             -0.0001  Tot=              0.0003
 Quadrupole moment (field-independent basis, Debye-Ang):
   XX=           -159.6721   YY=           -159.6681   ZZ=           -203.5442
   XY=              0.0022   XZ=             -0.0012   YZ=              0.0036

  Exact polarizability:     635.134       0.004     635.107      -0.007       0.009     171.546
 Approx polarizability:     891.221       0.008     891.179      -0.014       0.025     278.281

                      1                      2                      3
                      A                      A                      A
 Frequencies --     18.9662                19.3754                20.2293
 Red. masses --      3.6671                 3.6623                 3.6068
 Frc consts  --      0.0008                 0.0008                 0.0009
 IR Inten    --      0.0210                 0.0153                 0.1197

                      4                      5                      6
                      A                      A                      A
 Frequencies --     21.3951                35.4812                35.4925
 Red. masses --      6.7690                 5.7651                 5.7647
 Frc consts  --      0.0018                 0.0043                 0.0043
 IR Inten    --      0.6588                 0.0843                 0.0841

                      7                      8                      9
                      A                      A                      A
 Frequencies --     49.9610                50.0764                86.6976
 Red. masses --      6.5335                 6.5408                 5.5499
 Frc consts  --      0.0096                 0.0097                 0.0246
 IR Inten    --      0.0000                 0.0000                 0.0000

                     10                     11                     12
                      A                      A                      A
 Frequencies --     97.0092                97.1408               105.3655
 Red. masses --      5.3834                 5.3855                 4.8054
 Frc consts  --      0.0298                 0.0299                 0.0314
 IR Inten    --      0.0000                 0.0001                 0.5107

                     13                     14                     15
                      A                      A                      A
 Frequencies --    166.7951               166.8111               170.0479
 Red. masses --      5.5908                 5.5907                 6.8018
 Frc consts  --      0.0916                 0.0917                 0.1159
 IR Inten    --      7.5419                 7.5357                 0.0001

                     16                     17                     18
                      A                      A                      A
 Frequencies --    202.4781               210.9589               211.0773
 Red. masses --      7.9757                 7.8101                 7.8177
 Frc consts  --      0.1927                 0.2048                 0.2052
 IR Inten    --      0.2082                 0.0000                 0.0001

                     19                     20                     21
                      A                      A                      A
 Frequencies --    256.2405               257.4078               257.4572
 Red. masses --      2.8190                 6.5127                 6.5142
 Frc consts  --      0.1091                 0.2542                 0.2544
 IR Inten    --     17.0656                 0.6316                 0.6307

                     22                     23                     24
                      A                      A                      A
 Frequencies --    266.0224               266.2218               276.4609
 Red. masses --      2.7724                 2.7724                 5.4224
 Frc consts  --      0.1156                 0.1158                 0.2442
 IR Inten    --      0.0028                 0.0006                 0.0000

                     25                     26                     27
                      A                      A                      A
 Frequencies --    322.3962               373.2027               373.2792
 Red. masses --      6.4735                 6.2549                 6.2573
 Frc consts  --      0.3964                 0.5133                 0.5137
 IR Inten    --      0.3588                 6.9869                 6.9822

                     28                     29                     30
                      A                      A                      A
 Frequencies --    413.4592               413.4749               413.7413
 Red. masses --      2.8732                 2.8734                 2.8658
 Frc consts  --      0.2894                 0.2894                 0.2890
 IR Inten    --      0.0001                 0.0001                 0.0574

                     31                     32                     33
                      A                      A                      A
 Frequencies --    426.1504               426.1857               444.9488
 Red. masses --      5.3316                 5.3310                 5.6282
 Frc consts  --      0.5705                 0.5705                 0.6565
 IR Inten    --      0.0000                 0.0000                 0.0001

                     34                     35                     36
                      A                      A                      A
 Frequencies --    466.3847               466.5104               507.4310
 Red. masses --      6.5170                 6.5211                 7.8578
 Frc consts  --      0.8352                 0.8362                 1.1921
 IR Inten    --     72.5941                72.8894                49.1571

                     37                     38                     39
                      A                      A                      A
 Frequencies --    507.4915               509.9462               522.3332
 Red. masses --      7.8568                 3.1351                 3.7028
 Frc consts  --      1.1922                 0.4803                 0.5952
 IR Inten    --     48.9482                27.5755                 0.0001

                     40                     41                     42
                      A                      A                      A
 Frequencies --    522.3584               568.2683               609.3071
 Red. masses --      3.7036                 7.6477                 9.2785
 Frc consts  --      0.5954                 1.4551                 2.0296
 IR Inten    --      0.0000                 0.0000                 0.0000

                     43                     44                     45
                      A                      A                      A
 Frequencies --    632.3614               632.5910               632.6062
 Red. masses --      6.4593                 6.4817                 6.4817
 Frc consts  --      1.5218                 1.5282                 1.5283
 IR Inten    --      0.0012                 0.7893                 0.7888

                     46                     47                     48
                      A                      A                      A
 Frequencies --    661.6793               661.6999               686.9949
 Red. masses --      6.7630                 6.7633                 6.0130
 Frc consts  --      1.7446                 1.7447                 1.6720
 IR Inten    --      3.6700                 3.6681                 0.0001

                     49                     50                     51
                      A                      A                      A
 Frequencies --    687.1508               698.3333               701.2714
 Red. masses --      6.0085                 1.9160                 1.8035
 Frc consts  --      1.6715                 0.5505                 0.5226
 IR Inten    --      0.0000                67.6592                 0.0040

                     52                     53                     54
                      A                      A                      A
 Frequencies --    701.2923               725.7003               749.3643
 Red. masses --      1.8013                 5.9308                 8.4774
 Frc consts  --      0.5220                 1.8403                 2.8048
 IR Inten    --      0.0022                32.7520                 0.0000

                     55                     56                     57
                      A                      A                      A
 Frequencies --    752.7740               753.1630               757.2343
 Red. masses --      1.1550                 1.1540                 1.1097
 Frc consts  --      0.3856                 0.3857                 0.3749
 IR Inten    --      0.3181                 1.2013               305.3006

                     58                     59                     60
                      A                      A                      A
 Frequencies --    771.8081               771.8495               771.8702
 Red. masses --      1.9277                 1.8795                 1.8767
 Frc consts  --      0.6766                 0.6597                 0.6588
 IR Inten    --     40.9898                 2.2610                 0.0013

                     61                     62                     63
                      A                      A                      A
 Frequencies --    793.8414               851.6941               851.8314
 Red. masses --      5.7973                 1.2544                 1.2544
 Frc consts  --      2.1525                 0.5361                 0.5363
 IR Inten    --      0.0000                 0.2384                 0.0054

                     64                     65                     66
                      A                      A                      A
 Frequencies --    851.8579               868.5092               868.5416
 Red. masses --      1.2543                 4.6529                 4.6540
 Frc consts  --      0.5363                 2.0679                 2.0685
 IR Inten    --      0.0006                 6.4265                 6.4140

                     67                     68                     69
                      A                      A                      A
 Frequencies --    891.2047               927.0198               927.4066
 Red. masses --      4.3282                 1.3704                 1.3739
 Frc consts  --      2.0254                 0.6939                 0.6962
 IR Inten    --      0.0000                 0.5669                 0.0002

                     70                     71                     72
                      A                      A                      A
 Frequencies --    927.4213               984.8312               984.8646
 Red. masses --      1.3738                 1.3807                 1.3808
 Frc consts  --      0.6962                 0.7890                 0.7891
 IR Inten    --      0.0001                 0.0104                 0.0115

                     73                     74                     75
                      A                      A                      A
 Frequencies --    985.0218               990.8092               991.1057
 Red. masses --      1.3793                 1.5064                 1.5109
 Frc consts  --      0.7885                 0.8713                 0.8744
 IR Inten    --      1.2111                31.6977                 0.2396

                     76                     77                     78
                      A                      A                      A
 Frequencies --    991.1975               996.6836               996.7016
 Red. masses --      1.5092                 6.5269                 6.5267
 Frc consts  --      0.8736                 3.8200                 3.8201
 IR Inten    --      0.7257                21.5218                21.5728

                     79                     80                     81
                      A                      A                      A
 Frequencies --   1002.2222              1002.4206              1002.4416
 Red. masses --      1.3449                 1.3498                 1.3507
 Frc consts  --      0.7959                 0.7991                 0.7997
 IR Inten    --      8.7762                 0.0406                 0.0166

                     82                     83                     84
                      A                      A                      A
 Frequencies --   1013.8726              1014.0281              1014.0334
 Red. masses --      6.1998                 6.1913                 6.1910
 Frc consts  --      3.7549                 3.7509                 3.7507
 IR Inten    --      0.0001                 0.2184                 0.2180

                     85                     86                     87
                      A                      A                      A
 Frequencies --   1046.7068              1046.9431              1046.9557
 Red. masses --      2.1428                 2.1258                 2.1260
 Frc consts  --      1.3832                 1.3728                 1.3730
 IR Inten    --      0.0121                10.9876                10.9660

                     88                     89                     90
                      A                      A                      A
 Frequencies --   1107.8531              1108.7186              1108.7456
 Red. masses --      1.6043                 1.6315                 1.6316
 Frc consts  --      1.1601                 1.1816                 1.1817
 IR Inten    --      0.0085                13.2724                13.2787

                     91                     92                     93
                      A                      A                      A
 Frequencies --   1178.2350              1178.2932              1190.5591
 Red. masses --      7.0916                 7.0953                 1.1386
 Frc consts  --      5.8004                 5.8040                 0.9509
 IR Inten    --     70.6133                70.5059                 0.0052

                     94                     95                     96
                      A                      A                      A
 Frequencies --   1190.8434              1190.8572              1199.4589
 Red. masses --      1.1339                 1.1338                 1.3842
 Frc consts  --      0.9474                 0.9473                 1.1734
 IR Inten    --      2.9418                 2.9202                 0.0004

                     97                     98                     99
                      A                      A                      A
 Frequencies --   1202.8863              1202.9140              1220.1197
 Red. masses --      1.1805                 1.1805                 2.4802
 Frc consts  --      1.0064                 1.0064                 2.1754
 IR Inten    --     19.4812                19.4896                 0.0000

                    100                    101                    102
                      A                      A                      A
 Frequencies --   1248.8770              1248.9376              1263.2063
 Red. masses --      2.8215                 2.8238                 2.7353
 Frc consts  --      2.5928                 2.5952                 2.5716
 IR Inten    --     48.0550                48.1138                 0.0000

                    103                    104                    105
                      A                      A                      A
 Frequencies --   1307.1860              1307.3081              1323.6667
 Red. masses --      1.6659                 1.6665                 4.0584
 Frc consts  --      1.6772                 1.6781                 4.1895
 IR Inten    --      6.8370                 6.8248                 0.0000

                    106                    107                    108
                      A                      A                      A
 Frequencies --   1334.3220              1334.3458              1334.7757
 Red. masses --      2.8617                 2.8599                 3.0081
 Frc consts  --      3.0019                 3.0001                 3.1576
 IR Inten    --     22.7855                22.7968                 0.0223

                    109                    110                    111
                      A                      A                      A
 Frequencies --   1353.8302              1354.0334              1354.0625
 Red. masses --      1.8847                 1.8304                 1.8286
 Frc consts  --      2.0353                 1.9772                 1.9754
 IR Inten    --      0.0636                 5.9360                 5.9858

                    112                    113                    114
                      A                      A                      A
 Frequencies --   1393.5095              1423.4354              1423.5660
 Red. masses --      5.3268                 1.6299                 1.6304
 Frc consts  --      6.0945                 1.9457                 1.9467
 IR Inten    --      0.0002                58.5503                58.6609

                    115                    116                    117
                      A                      A                      A
 Frequencies --   1435.7030              1468.1616              1477.9128
 Red. masses --      1.6673                 1.8919                 2.4252
 Frc consts  --      2.0249                 2.4027                 3.1210
 IR Inten    --      0.0023                 0.0000                 1.3735

                    118                    119                    120
                      A                      A                      A
 Frequencies --   1477.9307              1482.3675              1493.2514
 Red. masses --      2.4235                 2.1350                 3.0932
 Frc consts  --      3.1189                 2.7641                 4.0638
 IR Inten    --      1.3749                 0.0001                42.0226

                    121                    122                    123
                      A                      A                      A
 Frequencies --   1493.3415              1524.9172              1524.9272
 Red. masses --      3.0968                 2.3272                 2.3271
 Frc consts  --      4.0690                 3.1884                 3.1883
 IR Inten    --     41.9030                19.4029                19.3926

                    124                    125                    126
                      A                      A                      A
 Frequencies --   1525.1530              1611.2687              1611.2891
 Red. masses --      2.2949                 5.2878                 5.2871
 Frc consts  --      3.1451                 8.0884                 8.0876
 IR Inten    --      0.0112                13.7604                13.6727

                    127                    128                    129
                      A                      A                      A
 Frequencies --   1612.1434              1623.5063              1623.5335
 Red. masses --      5.5030                 4.5551                 4.5538
 Frc consts  --      8.4268                 7.0738                 7.0721
 IR Inten    --      0.0032               324.8254               324.5444

                    130                    131                    132
                      A                      A                      A
 Frequencies --   1633.1346              1642.9577              1642.9763
 Red. masses --      5.3472                 5.2886                 5.2900
 Frc consts  --      8.4027                 8.4109                 8.4133
 IR Inten    --      0.0003               245.2032               245.5813

                    133                    134                    135
                      A                      A                      A
 Frequencies --   1662.3873              1667.1561              1667.1895
 Red. masses --      7.0252                 7.4259                 7.4287
 Frc consts  --     11.4386                12.1606                12.1655
 IR Inten    --      0.0052               154.6528               154.6021

                    136                    137                    138
                      A                      A                      A
 Frequencies --   3122.6901              3122.7605              3122.9501
 Red. masses --      1.0879                 1.0880                 1.0879
 Frc consts  --      6.2504                 6.2509                 6.2516
 IR Inten    --      2.0674                 5.0204                 4.5348

                    139                    140                    141
                      A                      A                      A
 Frequencies --   3156.4834              3156.5030              3156.5325
 Red. masses --      1.0866                 1.0866                 1.0866
 Frc consts  --      6.3786                 6.3786                 6.3786
 IR Inten    --      4.9433                 5.3569                 5.4747

                    142                    143                    144
                      A                      A                      A
 Frequencies --   3163.9616              3163.9999              3164.0180
 Red. masses --      1.0879                 1.0879                 1.0879
 Frc consts  --      6.4163                 6.4165                 6.4166
 IR Inten    --      0.0592                 0.0620                 0.0109

                    145                    146                    147
                      A                      A                      A
 Frequencies --   3174.7448              3174.7550              3174.7728
 Red. masses --      1.0917                 1.0917                 1.0917
 Frc consts  --      6.4828                 6.4828                 6.4829
 IR Inten    --      3.3165                23.5895                20.2297

                    148                    149                    150
                      A                      A                      A
 Frequencies --   3186.8598              3186.8725              3186.9224
 Red. masses --      1.0959                 1.0959                 1.0958
 Frc consts  --      6.5574                 6.5574                 6.5574
 IR Inten    --     44.4038                43.3877                 1.6431

                    151                    152                    153
                      A                      A                      A
 Frequencies --   3196.5105              3196.5329              3196.5702
 Red. masses --      1.0940                 1.0940                 1.0940
 Frc consts  --      6.5862                 6.5863                 6.5865
 IR Inten    --     14.0324                11.5895                 4.9157

                    154                    155                    156
                      A                      A                      A
 Frequencies --   3464.7751              3468.5869              3468.6576
 Red. masses --      1.0632                 1.0632                 1.0632
 Frc consts  --      7.5200                 7.5368                 7.5372
 IR Inten    --      0.1147               655.1209               654.8952

 - Thermochemistry -
 -------------------
 Temperature   298.150 Kelvin.  Pressure   1.00000 Atm.
 Atom     1 has atomic number  6 and mass  12.00000

 Molecular mass:   435.15829 amu.
 Principal axes and moments of inertia in atomic units:
                           1         2         3
     Eigenvalues --  ******************************
           X            1.00000   0.00302  -0.00000
           Y           -0.00302   1.00000   0.00000
           Z            0.00000  -0.00000   1.00000
 This molecule is an asymmetric top.
 Rotational symmetry number  1.
 Warning -- assumption of classical behavior for rotation
           may cause significant error
 Rotational temperatures (Kelvin)      0.00409     0.00409     0.00204
 Rotational constants (GHZ):           0.08518     0.08517     0.04259
 Zero-point vibrational energy    1104417.4 (Joules/Mol)
                                  263.96208 (Kcal/Mol)
 Warning -- explicit consideration of  42 degrees of freedom as
           vibrations may cause significant error
 Vibrational temperatures:     27.29    27.88    29.11    30.78    51.05
          (Kelvin)             51.07    71.88    72.05   124.74   139.57
                              139.76   151.60   239.98   240.00   244.66
                              291.32   303.52   303.69   368.67   370.35
                              370.42   382.75   383.03   397.77   463.86
                              536.96   537.07   594.88   594.90   595.28
                              613.14   613.19   640.18   671.02   671.20
                              730.08   730.17   733.70   751.52   751.56
                              817.61   876.66   909.83   910.16   910.18
                              952.01   952.04   988.43   988.66  1004.75
                             1008.97  1009.00  1044.12  1078.17  1083.07
                             1083.63  1089.49  1110.46  1110.52  1110.55
                             1142.16  1225.40  1225.60  1225.63  1249.59
                             1249.64  1282.24  1333.77  1334.33  1334.35
                             1416.95  1417.00  1417.23  1425.55  1425.98
                             1426.11  1434.01  1434.03  1441.97  1442.26
                             1442.29  1458.74  1458.96  1458.97  1505.98
                             1506.32  1506.34  1593.95  1595.20  1595.24
                             1695.22  1695.30  1712.95  1713.36  1713.38
                             1725.75  1730.69  1730.72  1755.48  1796.86
                             1796.94  1817.47  1880.75  1880.92  1904.46
                             1919.79  1919.83  1920.44  1947.86  1948.15
                             1948.19  2004.95  2048.01  2048.19  2065.66
                             2112.36  2126.39  2126.41  2132.80  2148.46
                             2148.59  2194.02  2194.03  2194.35  2318.26
                             2318.29  2319.51  2335.86  2335.90  2349.72
                             2363.85  2363.88  2391.80  2398.67  2398.71
                             4492.85  4492.96  4493.23  4541.48  4541.50
                             4541.55  4552.24  4552.29  4552.32  4567.75
                             4567.76  4567.79  4585.18  4585.20  4585.27
                             4599.07  4599.10  4599.15  4985.04  4990.52
                             4990.62

 Zero-point correction=                           0.420650 (Hartree/Particle)
 Thermal correction to Energy=                    0.448099
 Thermal correction to Enthalpy=                  0.449043
 Thermal correction to Gibbs Free Energy=         0.358332
 Sum of electronic and zero-point Energies=          -1431.449097
 Sum of electronic and thermal Energies=             -1431.421649
 Sum of electronic and thermal Enthalpies=           -1431.420704
 Sum of electronic and thermal Free Energies=        -1431.511416

                     E (Thermal)             CV                S
                      KCal/Mol        Cal/Mol-Kelvin    Cal/Mol-Kelvin
 Total                  281.186            107.616            190.919
 Electronic               0.000              0.000              0.000
 Translational            0.889              2.981             44.101
 Rotational               0.889              2.981             38.184
 Vibrational            279.409            101.654            108.633
 Vibration     1          0.593              1.986              6.740
 Vibration     2          0.593              1.986              6.697
 Vibration     3          0.593              1.986              6.612
 Vibration     4          0.593              1.985              6.500
 Vibration     5          0.594              1.982              5.497
 Vibration     6          0.594              1.982              5.496
 Vibration     7          0.595              1.978              4.819
 Vibration     8          0.595              1.978              4.814
 Vibration     9          0.601              1.958              3.733
 Vibration    10          0.603              1.951              3.514
 Vibration    11          0.603              1.951              3.511
 Vibration    12          0.605              1.945              3.353
 Vibration    13          0.624              1.883              2.471
 Vibration    14          0.624              1.883              2.471
 Vibration    15          0.625              1.879              2.435
 Vibration    16          0.639              1.836              2.110
 Vibration    17          0.643              1.824              2.035
 Vibration    18          0.643              1.824              2.034
 Vibration    19          0.666              1.752              1.687
 Vibration    20          0.667              1.750              1.679
 Vibration    21          0.667              1.750              1.679
 Vibration    22          0.672              1.735              1.622
 Vibration    23          0.672              1.735              1.621
 Vibration    24          0.678              1.717              1.555
 Vibration    25          0.707              1.631              1.298
 Vibration    26          0.745              1.527              1.067
 Vibration    27          0.745              1.527              1.066
 Vibration    28          0.777              1.441              0.914
 Vibration    29          0.777              1.441              0.914
 Vibration    30          0.777              1.440              0.913
 Vibration    31          0.788              1.413              0.871
 Vibration    32          0.788              1.413              0.871
 Vibration    33          0.804              1.372              0.811
 Vibration    34          0.824              1.325              0.748
 Vibration    35          0.824              1.324              0.747
 Vibration    36          0.863              1.234              0.640
 Vibration    37          0.863              1.233              0.640
 Vibration    38          0.865              1.228              0.634
 Vibration    39          0.877              1.201              0.605
 Vibration    40          0.877              1.200              0.605
 Vibration    41          0.924              1.100              0.508
 Vibration    42          0.968              1.012              0.434

 Normal termination of Gaussian 16 at Fri Aug  7 02:05:34 2020.
