 Gaussian 16, Revision C.01,
 Gaussian 16:  ES64L-G16RevC.01  3-Jul-2019

 ----------------------------------------------------------------------
 #P B3LYP/6-311++G(d,p) EmpiricalDispersion=GD3 freq(noraman) SCF=YQC N
 oSymm
 ----------------------------------------------------------------------

 --------------------------------------------
 Restart from 2_Phenyl_PrimaryAmine_Imine.log
 --------------------------------------------
 Symbolic Z-matrix:
 Charge =  0 Multiplicity = 1

                          Input orientation:
 ---------------------------------------------------------------------
 Center     Atomic      Atomic             Coordinates (Angstroms)
 Number     Number       Type             X           Y           Z
 ---------------------------------------------------------------------
      1          6           0       -0.010967   -1.410958   -0.008598
      2          6           0        0.010967    1.410958    0.008598
      3          6           0       -1.207267   -0.684224    0.123206
      4          6           0        1.207267    0.684224   -0.123206
      5          6           0       -1.191525    0.703104    0.148719
      6          6           0        1.191525   -0.703104   -0.148719
      7          1           0        2.112681   -1.264789   -0.252125
      8          1           0       -2.112681    1.264789    0.252125
      9          1           0        2.152320    1.211811   -0.182723
     10          1           0       -2.152320   -1.211811    0.182723
     11          7           0        0.043402   -2.812681   -0.044567
     12          6           0       -0.717521   -3.511012    0.706639
     13          6           0       -0.751330   -4.977371    0.662601
     14          6           0       -1.594623   -5.670112    1.542093
     15          6           0       -1.649154   -7.061810    1.524070
     16          6           0       -0.859349   -7.775677    0.624965
     17          6           0       -0.014870   -7.092875   -0.256051
     18          6           0        0.040029   -5.705739   -0.240483
     19          1           0       -1.383962   -3.043766    1.445275
     20          1           0       -2.209298   -5.113780    2.242892
     21          1           0       -2.305167   -7.587023    2.208879
     22          1           0       -0.899473   -8.859049    0.608237
     23          1           0        0.599158   -7.649001   -0.955610
     24          1           0        0.688438   -5.163368   -0.917591
     25          7           0       -0.043402    2.812681    0.044567
     26          6           0        0.717521    3.511012   -0.706639
     27          6           0        0.751330    4.977371   -0.662601
     28          6           0        1.594623    5.670112   -1.542093
     29          6           0        1.649154    7.061810   -1.524070
     30          6           0        0.859349    7.775677   -0.624965
     31          6           0        0.014870    7.092875    0.256051
     32          6           0       -0.040029    5.705739    0.240483
     33          1           0        1.383962    3.043766   -1.445275
     34          1           0        2.209298    5.113780   -2.242892
     35          1           0        2.305167    7.587023   -2.208879
     36          1           0        0.899473    8.859049   -0.608237
     37          1           0       -0.599157    7.649001    0.955610
     38          1           0       -0.688438    5.163368    0.917591
 ---------------------------------------------------------------------

 SCF Done:  E(RB3LYP) =  -881.504845649     a.u. after    6 cycles
 SCF Done:  E(RB3LYP) =  -881.504864168     A.U. after   11 cycles

 Alpha  occ. eigenvalues --  -14.31775 -14.31775 -10.22530 -10.22530 -10.21045
 Alpha  occ. eigenvalues --  -10.21043 -10.19339 -10.19339 -10.18932 -10.18932
 Alpha  occ. eigenvalues --  -10.18796 -10.18795 -10.18630 -10.18630 -10.18504
 Alpha  occ. eigenvalues --  -10.18504 -10.18313 -10.18313 -10.17985 -10.17984
 Alpha  occ. eigenvalues --  -10.17709 -10.17708  -0.94752  -0.94291  -0.87248
 Alpha  occ. eigenvalues --   -0.86974  -0.84645  -0.78490  -0.77179  -0.76013
 Alpha  occ. eigenvalues --   -0.75953  -0.75579  -0.73405  -0.67478  -0.64527
 Alpha  occ. eigenvalues --   -0.62382  -0.62241  -0.61908  -0.60180  -0.57895
 Alpha  occ. eigenvalues --   -0.56444  -0.53625  -0.52721  -0.52044  -0.51189
 Alpha  occ. eigenvalues --   -0.48486  -0.47415  -0.46544  -0.45504  -0.45116
 Alpha  occ. eigenvalues --   -0.44759  -0.43845  -0.43580  -0.43316  -0.43312
 Alpha  occ. eigenvalues --   -0.42793  -0.39967  -0.39913  -0.39810  -0.38422
 Alpha  occ. eigenvalues --   -0.36996  -0.36712  -0.36203  -0.35602  -0.35552
 Alpha  occ. eigenvalues --   -0.34638  -0.33238  -0.29626  -0.27312  -0.26823
 Alpha  occ. eigenvalues --   -0.26810  -0.26456  -0.26014  -0.25724  -0.21449
 Alpha virt. eigenvalues --   -0.07954  -0.06032  -0.02395  -0.02367  -0.01871
 Alpha virt. eigenvalues --   -0.00863  -0.00754  -0.00230   0.00238   0.00272
 Alpha virt. eigenvalues --    0.00881   0.01647   0.01753   0.01832   0.02681

 Mulliken charges:
               1
     1  C   -0.560050
     2  C   -0.560050
     3  C   -0.112466
     4  C   -0.112466
     5  C    0.416483
     6  C    0.416483
     7  H    0.187940
     8  H    0.187940
     9  H    0.173226
    10  H    0.173226
    11  N    0.221014
    12  C   -0.282035
    13  C    0.870926
    14  C   -0.594418
    15  C   -0.378715
    16  C   -0.408720
    17  C   -0.154431
    18  C   -0.335788
    19  H    0.097152
    20  H    0.161538
    21  H    0.167015
    22  H    0.161421
    23  H    0.180930
    24  H    0.188978
    25  N    0.221014
    26  C   -0.282036
    27  C    0.870926
    28  C   -0.594418
    29  C   -0.378715
    30  C   -0.408719
    31  C   -0.154432
    32  C   -0.335787
    33  H    0.097152
    34  H    0.161538
    35  H    0.167015
    36  H    0.161421
    37  H    0.180930
    38  H    0.188978
 Sum of Mulliken charges =   0.00000

 Dipole moment (field-independent basis, Debye):
    X=              0.0000    Y=              0.0000    Z=              0.0000  Tot=              0.0000
 Quadrupole moment (field-independent basis, Debye-Ang):
   XX=           -122.6671   YY=            -98.7803   ZZ=           -128.6646
   XY=              8.2462   XZ=             -9.7625   YZ=             -6.7066

  Exact polarizability:     203.889      51.472     575.619     -49.402     -39.287     176.510
 Approx polarizability:     357.430      56.294     698.528     -99.263     -41.767     300.072

                      1                      2                      3
                      A                      A                      A
 Frequencies --     19.9516                27.9424                33.8271
 Red. masses --      5.8555                 3.9632                 5.1735
 Frc consts  --      0.0014                 0.0018                 0.0035
 IR Inten    --      0.5737                 0.4419                 0.3398

                      4                      5                      6
                      A                      A                      A
 Frequencies --     48.2257                61.9457                77.6117
 Red. masses --      3.7121                 5.5289                 5.2091
 Frc consts  --      0.0051                 0.0125                 0.0185
 IR Inten    --      0.0000                 0.0000                 0.0000

                      7                      8                      9
                      A                      A                      A
 Frequencies --    110.5913               138.2028               162.2026
 Red. masses --      4.7283                 5.8877                 5.4997
 Frc consts  --      0.0341                 0.0663                 0.0853
 IR Inten    --      1.7665                 0.0000                 0.0000

                     10                     11                     12
                      A                      A                      A
 Frequencies --    164.4464               239.3793               270.1202
 Red. masses --      5.2878                 3.6017                 2.7732
 Frc consts  --      0.0843                 0.1216                 0.1192
 IR Inten    --     11.7390                28.2439                 0.0000

                     13                     14                     15
                      A                      A                      A
 Frequencies --    296.0640               304.1595               332.2360
 Red. masses --      4.3507                 4.9560                 6.4054
 Frc consts  --      0.2247                 0.2701                 0.4166
 IR Inten    --      1.7145                 0.0000                 3.7644

                     16                     17                     18
                      A                      A                      A
 Frequencies --    410.8288               413.5340               414.1938
 Red. masses --      4.5143                 2.8973                 3.1097
 Frc consts  --      0.4489                 0.2919                 0.3143
 IR Inten    --      0.0000                 0.1099                 0.0000

                     19                     20                     21
                      A                      A                      A
 Frequencies --    428.4935               456.9175               501.0812
 Red. masses --      3.0423                 4.4970                 4.1907
 Frc consts  --      0.3291                 0.5532                 0.6199
 IR Inten    --     18.3740                10.1950                 0.0000

                     22                     23                     24
                      A                      A                      A
 Frequencies --    510.7456               525.8407               538.5768
 Red. masses --      3.4390                 6.8869                 4.1327
 Frc consts  --      0.5286                 1.1220                 0.7063
 IR Inten    --     12.1151                 0.0000                 0.0000

                     25                     26                     27
                      A                      A                      A
 Frequencies --    566.9205               618.9019               632.0359
 Red. masses --      2.4885                 5.5398                 6.4938
 Frc consts  --      0.4712                 1.2502                 1.5284
 IR Inten    --     29.0786                32.9388                 0.0000

                     28                     29                     30
                      A                      A                      A
 Frequencies --    632.7530               653.4893               673.3080
 Red. masses --      6.3855                 6.9842                 6.3392
 Frc consts  --      1.5063                 1.7573                 1.6932
 IR Inten    --      0.9829                 0.0000                 0.0000

                     31                     32                     33
                      A                      A                      A
 Frequencies --    702.1409               702.5137               744.2291
 Red. masses --      1.8755                 1.8407                 3.1882
 Frc consts  --      0.5448                 0.5352                 1.0404
 IR Inten    --      0.0000                81.4118                 0.0000

                     34                     35                     36
                      A                      A                      A
 Frequencies --    769.5992               774.4105               812.2990
 Red. masses --      1.7083                 1.9385                 6.2362
 Frc consts  --      0.5961                 0.6850                 2.4244
 IR Inten    --     61.5592                 0.0000                 9.5661

                     37                     38                     39
                      A                      A                      A
 Frequencies --    828.7792               846.2604               852.8992
 Red. masses --      1.2703                 2.0606                 5.0688
 Frc consts  --      0.5141                 0.8695                 2.1725
 IR Inten    --      0.0000                74.2513                 0.0000

                     40                     41                     42
                      A                      A                      A
 Frequencies --    857.6911               857.6918               897.2118
 Red. masses --      1.2523                 1.2523                 4.5878
 Frc consts  --      0.5428                 0.5428                 2.1759
 IR Inten    --      0.0093                 0.0206                 0.0000

                     43                     44                     45
                      A                      A                      A
 Frequencies --    897.5848               934.2622               935.1485
 Red. masses --      3.3031                 1.3611                 1.3849
 Frc consts  --      1.5679                 0.7000                 0.7136
 IR Inten    --     40.8523                 0.0000                 4.0107

                     46                     47                     48
                      A                      A                      A
 Frequencies --    962.5991               973.9423               990.4852
 Red. masses --      1.3883                 1.3494                 1.3595
 Frc consts  --      0.7579                 0.7542                 0.7859
 IR Inten    --      0.0000                 0.8396                 0.0000

                     49                     50                     51
                      A                      A                      A
 Frequencies --    990.4948               999.0614               999.3272
 Red. masses --      1.3596                 1.4470                 1.4341
 Frc consts  --      0.7859                 0.8509                 0.8438
 IR Inten    --      0.2208                 7.9080                 0.0000

                     52                     53                     54
                      A                      A                      A
 Frequencies --   1008.9187              1009.3248              1014.3580
 Red. masses --      1.4473                 1.4526                 6.2752
 Frc consts  --      0.8680                 0.8719                 3.8041
 IR Inten    --     10.9772                 0.0000                 1.4517

                     55                     56                     57
                      A                      A                      A
 Frequencies --   1014.3784              1026.2677              1046.8548
 Red. masses --      6.1745                 2.5287                 2.1394
 Frc consts  --      3.7433                 1.5692                 1.3814
 IR Inten    --      0.0000                 3.4911                11.3273

                     58                     59                     60
                      A                      A                      A
 Frequencies --   1046.8592              1105.7509              1106.2035
 Red. masses --      2.1450                 1.6098                 1.5943
 Frc consts  --      1.3850                 1.1597                 1.1494
 IR Inten    --      0.0009                 0.0000                12.3651

                     61                     62                     63
                      A                      A                      A
 Frequencies --   1140.6739              1183.9366              1191.0132
 Red. masses --      1.2996                 1.5846                 1.1282
 Frc consts  --      0.9963                 1.3087                 0.9429
 IR Inten    --      8.8449                 0.0000                 3.8186

                     64                     65                     66
                      A                      A                      A
 Frequencies --   1191.0364              1200.6934              1202.0622
 Red. masses --      1.1267                 1.2740                 1.1693
 Frc consts  --      0.9417                 1.0821                 0.9954
 IR Inten    --      0.0001                73.3174                 0.0000

                     67                     68                     69
                      A                      A                      A
 Frequencies --   1217.7436              1218.9961              1265.7534
 Red. masses --      2.4459                 2.0339                 2.4748
 Frc consts  --      2.1370                 1.7807                 2.3361
 IR Inten    --     77.5490                 0.0000                 1.4634

                     70                     71                     72
                      A                      A                      A
 Frequencies --   1273.3620              1304.8960              1322.0794
 Red. masses --      3.0921                 5.9936                 1.5151
 Frc consts  --      2.9540                 6.0130                 1.5603
 IR Inten    --      0.0000                11.5603                 0.0000

                     73                     74                     75
                      A                      A                      A
 Frequencies --   1333.2563              1333.6681              1354.1507
 Red. masses --      2.2185                 3.4168                 1.9085
 Frc consts  --      2.3234                 3.5806                 2.0619
 IR Inten    --      0.0000                19.8684                 0.0000

                     76                     77                     78
                      A                      A                      A
 Frequencies --   1354.1976              1411.3300              1413.3614
 Red. masses --      1.8853                 1.4378                 1.4556
 Frc consts  --      2.0370                 1.6873                 1.7131
 IR Inten    --      7.3568                11.3200                 0.0000

                     79                     80                     81
                      A                      A                      A
 Frequencies --   1446.1879              1480.2942              1480.5889
 Red. masses --      3.0284                 2.1766                 2.1877
 Frc consts  --      3.7317                 2.8101                 2.8255
 IR Inten    --      9.0707                18.5384                 0.0000

                     82                     83                     84
                      A                      A                      A
 Frequencies --   1518.8993              1523.6295              1530.8450
 Red. masses --      2.2008                 2.2634                 2.5350
 Frc consts  --      2.9916                 3.0957                 3.5001
 IR Inten    --     24.1912                 0.0000                89.5902

                     85                     86                     87
                      A                      A                      A
 Frequencies --   1585.6957              1611.8237              1614.6186
 Red. masses --      6.2288                 5.6054                 5.4655
 Frc consts  --      9.2277                 8.5801                 8.3950
 IR Inten    --      0.0000                 0.0000                33.3466

                     88                     89                     90
                      A                      A                      A
 Frequencies --   1623.6344              1639.1598              1643.6188
 Red. masses --      5.5846                 5.3479                 5.5868
 Frc consts  --      8.6739                 8.4659                 8.8924
 IR Inten    --      0.0000                11.5614                 0.0000

                     91                     92                     93
                      A                      A                      A
 Frequencies --   1682.0150              1688.1211              2997.3683
 Red. masses --      7.6567                 7.3395                 1.0853
 Frc consts  --     12.7629                12.3233                 5.7448
 IR Inten    --    303.0791                 0.0000                 0.0000

                     94                     95                     96
                      A                      A                      A
 Frequencies --   2997.5461              3154.3476              3154.3495
 Red. masses --      1.0854                 1.0872                 1.0872
 Frc consts  --      5.7459                 6.3735                 6.3735
 IR Inten    --     77.8248                 0.0131                11.0871

                     97                     98                     99
                      A                      A                      A
 Frequencies --   3163.5241              3163.5391              3169.1553
 Red. masses --      1.0877                 1.0877                 1.0874
 Frc consts  --      6.4133                 6.4134                 6.4347
 IR Inten    --      0.0381                 0.0002                17.4350

                    100                    101                    102
                      A                      A                      A
 Frequencies --   3170.5649              3174.9612              3174.9667
 Red. masses --      1.0876                 1.0916                 1.0916
 Frc consts  --      6.4414                 6.4831                 6.4831
 IR Inten    --      0.0000                 1.1825                34.7617

                    103                    104                    105
                      A                      A                      A
 Frequencies --   3186.2748              3186.8065              3186.8413
 Red. masses --      1.0943                 1.0961                 1.0960
 Frc consts  --      6.5454                 6.5584                 6.5584
 IR Inten    --     12.6288                50.2897                 0.0008

                    106                    107                    108
                      A                      A                      A
 Frequencies --   3188.0058              3196.5534              3196.5725
 Red. masses --      1.0948                 1.0946                 1.0947
 Frc consts  --      6.5560                 6.5900                 6.5902
 IR Inten    --      0.0000                17.1435                 0.0060

 - Thermochemistry -
 -------------------
 Temperature   298.150 Kelvin.  Pressure   1.00000 Atm.
 Atom     1 has atomic number  6 and mass  12.00000

 Molecular mass:   284.13135 amu.
 Principal axes and moments of inertia in atomic units:
                           1         2         3
     Eigenvalues --  1009.07108********************
           X            0.12484   0.79819   0.58933
           Y            0.98715  -0.15966   0.00712
           Z           -0.09978  -0.58086   0.80786
 This molecule is an asymmetric top.
 Rotational symmetry number  1.
 Warning -- assumption of classical behavior for rotation
           may cause significant error
 Rotational temperatures (Kelvin)      0.08584     0.00331     0.00321
 Rotational constants (GHZ):           1.78852     0.06900     0.06696
 Zero-point vibrational energy     797997.7 (Joules/Mol)
                                  190.72602 (Kcal/Mol)
 Warning -- explicit consideration of  26 degrees of freedom as
           vibrations may cause significant error
 Vibrational temperatures:     28.71    40.20    48.67    69.39    89.13
          (Kelvin)            111.67   159.12   198.84   233.37   236.60
                              344.41   388.64   425.97   437.62   478.01
                              591.09   594.98   595.93   616.51   657.40
                              720.94   734.85   756.57   774.89   815.67
                              890.46   909.36   910.39   940.23   968.74
                             1010.22  1010.76  1070.78  1107.28  1114.20
                             1168.72  1192.43  1217.58  1227.13  1234.03
                             1234.03  1290.89  1291.42  1344.19  1345.47
                             1384.97  1401.29  1425.09  1425.10  1437.43
                             1437.81  1451.61  1452.19  1459.43  1459.46
                             1476.57  1506.19  1506.20  1590.93  1591.58
                             1641.18  1703.42  1713.60  1713.64  1727.53
                             1729.50  1752.06  1753.86  1821.14  1832.08
                             1877.45  1902.18  1918.26  1918.85  1948.32
                             1948.39  2030.59  2033.51  2080.74  2129.81
                             2130.24  2185.36  2192.16  2202.54  2281.46
                             2319.05  2323.08  2336.05  2358.39  2364.80
                             2420.04  2428.83  4312.54  4312.80  4538.40
                             4538.41  4551.61  4551.63  4559.71  4561.74
                             4568.06  4568.07  4584.34  4585.10  4585.15
                             4586.83  4599.13  4599.15

 Zero-point correction=                           0.303941 (Hartree/Particle)
 Thermal correction to Energy=                    0.321705
 Thermal correction to Enthalpy=                  0.322649
 Thermal correction to Gibbs Free Energy=         0.255194
 Sum of electronic and zero-point Energies=           -881.200923
 Sum of electronic and thermal Energies=              -881.183159
 Sum of electronic and thermal Enthalpies=            -881.182215
 Sum of electronic and thermal Free Energies=         -881.249670

                     E (Thermal)             CV                S
                      KCal/Mol        Cal/Mol-Kelvin    Cal/Mol-Kelvin
 Total                  201.873             70.080            141.972
 Electronic               0.000              0.000              0.000
 Translational            0.889              2.981             42.831
 Rotational               0.889              2.981             34.919
 Vibrational            200.096             64.118             64.222
 Vibration     1          0.593              1.986              6.639
 Vibration     2          0.593              1.984              5.970
 Vibration     3          0.594              1.983              5.591
 Vibration     4          0.595              1.978              4.889
 Vibration     5          0.597              1.972              4.394
 Vibration     6          0.599              1.964              3.950
 Vibration     7          0.606              1.941              3.259
 Vibration     8          0.614              1.915              2.829
 Vibration     9          0.622              1.889              2.524
 Vibration    10          0.623              1.886              2.498
 Vibration    11          0.657              1.780              1.807
 Vibration    12          0.674              1.728              1.595
 Vibration    13          0.690              1.681              1.439
 Vibration    14          0.695              1.666              1.394
 Vibration    15          0.714              1.611              1.249
 Vibration    16          0.775              1.447              0.924
 Vibration    17          0.777              1.441              0.914
 Vibration    18          0.778              1.439              0.912
 Vibration    19          0.790              1.408              0.864
 Vibration    20          0.815              1.346              0.775
 Vibration    21          0.856              1.248              0.655
 Vibration    22          0.866              1.226              0.632
 Vibration    23          0.881              1.193              0.597
 Vibration    24          0.894              1.165              0.568
 Vibration    25          0.923              1.103              0.510
 Vibration    26          0.979              0.992              0.418

 Optimization completed.
    -- Stationary point found.
 Normal termination of Gaussian 16 at Sat Oct 17 08:40:06 2020.
