 Gaussian 16, Revision C.01,
 Gaussian 16:  ES64L-G16RevC.01  3-Jul-2019

 ----------------------------------------------------------------------
 #P B3LYP/6-311++G(d,p) EmpiricalDispersion=GD3 freq(noraman) SCF=YQC N
 oSymm
 ----------------------------------------------------------------------

 ----------------------------------------------
 Restart from BiPhenyl_AmineBorane_Borazine.log
 ----------------------------------------------
 Symbolic Z-matrix:
 Charge =  0 Multiplicity = 1

                          Input orientation:
 ---------------------------------------------------------------------
 Center     Atomic      Atomic             Coordinates (Angstroms)
 Number     Number       Type             X           Y           Z
 ---------------------------------------------------------------------
      1          6           0        0.000530    3.571058    0.020066
      2          6           0        1.129023    2.857497   -0.392035
      3          6           0        1.127956    1.467055   -0.387961
      4          6           0        0.000106    0.741048    0.020057
      5          6           0       -1.127522    1.467385    0.428101
      6          6           0       -1.128170    2.857828    0.432194
      7          6           0       -0.000106   -0.741049    0.020057
      8          6           0       -1.127956   -1.467056   -0.387961
      9          6           0       -1.129023   -2.857498   -0.392035
     10          6           0       -0.000530   -3.571059    0.020066
     11          6           0        1.128170   -2.857829    0.432194
     12          6           0        1.127522   -1.467386    0.428101
     13          1           0       -2.003032   -3.397893   -0.735869
     14          1           0       -2.002009    3.398472    0.776060
     15          1           0        2.002009   -3.398473    0.776060
     16          1           0        2.003032    3.397892   -0.735869
     17          1           0       -2.006035   -0.937051   -0.739318
     18          1           0       -2.005752    0.937640    0.779472
     19          1           0        2.006035    0.937050   -0.739318
     20          1           0        2.005752   -0.937641    0.779472
     21          7           0        0.000789    5.002795    0.020076
     22          5           0       -1.073362    5.720998   -0.620598
     23          5           0        1.075357    5.720564    0.660523
     24          1           0       -1.954500    5.135044   -1.163521
     25          7           0       -1.043996    7.148949   -0.597924
     26          1           0        1.956685    5.134235    1.202737
     27          7           0        1.046317    7.148530    0.638273
     28          5           0        0.001275    7.902912    0.020238
     29          1           0       -1.793960    7.644885   -1.055493
     30          1           0        1.796247    7.644161    1.096229
     31          1           0        0.001371    9.094192    0.020486
     32          7           0       -0.000789   -5.002796    0.020076
     33          5           0        1.073362   -5.720999   -0.620598
     34          5           0       -1.075357   -5.720565    0.660523
     35          1           0        1.954500   -5.135046   -1.163521
     36          7           0        1.043996   -7.148950   -0.597924
     37          1           0       -1.956685   -5.134236    1.202738
     38          7           0       -1.046317   -7.148531    0.638273
     39          5           0       -0.001275   -7.902913    0.020239
     40          1           0        1.793960   -7.644886   -1.055493
     41          1           0       -1.796247   -7.644162    1.096229
     42          1           0       -0.001371   -9.094193    0.020487
 ---------------------------------------------------------------------

 SCF Done:  E(RB3LYP) =  -946.527592071     a.u. after    7 cycles
 SCF Done:  E(RB3LYP) =  -946.527598277     A.U. after    9 cycles

 Alpha  occ. eigenvalues --  -14.31536 -14.31536 -14.30435 -14.30435 -14.30435
 Alpha  occ. eigenvalues --  -14.30435 -10.21465 -10.21465 -10.18531 -10.18501
 Alpha  occ. eigenvalues --  -10.17732 -10.17732 -10.17730 -10.17730 -10.17568
 Alpha  occ. eigenvalues --  -10.17568 -10.17567 -10.17567  -6.75082  -6.75082
 Alpha  occ. eigenvalues --   -6.75081  -6.75081  -6.75035  -6.75035  -0.92378
 Alpha  occ. eigenvalues --   -0.92334  -0.88515  -0.88268  -0.85877  -0.85040
 Alpha  occ. eigenvalues --   -0.85040  -0.83293  -0.76283  -0.75631  -0.74963
 Alpha  occ. eigenvalues --   -0.70909  -0.63036  -0.62707  -0.60781  -0.59006
 Alpha  occ. eigenvalues --   -0.55873  -0.55668  -0.54602  -0.54260  -0.54214
 Alpha  occ. eigenvalues --   -0.54040  -0.51983  -0.48303  -0.47602  -0.46879
 Alpha  occ. eigenvalues --   -0.46611  -0.45330  -0.44940  -0.44940  -0.44824
 Alpha  occ. eigenvalues --   -0.44695  -0.43411  -0.42947  -0.42341  -0.40016
 Alpha  occ. eigenvalues --   -0.39997  -0.39599  -0.38536  -0.37909  -0.37613
 Alpha  occ. eigenvalues --   -0.36192  -0.35717  -0.35469  -0.34722  -0.33758
 Alpha  occ. eigenvalues --   -0.33753  -0.33253  -0.33195  -0.30666  -0.29450
 Alpha  occ. eigenvalues --   -0.29347  -0.29345  -0.25975  -0.25945  -0.25572
 Alpha  occ. eigenvalues --   -0.21903
 Alpha virt. eigenvalues --   -0.03799  -0.02127  -0.01798  -0.00945  -0.00740
 Alpha virt. eigenvalues --   -0.00616  -0.00381  -0.00290  -0.00181   0.00177
 Alpha virt. eigenvalues --    0.00263   0.00666   0.01185   0.01648   0.01751

 Mulliken charges:
               1
     1  C   -0.775219
     2  C   -0.071710
     3  C   -0.398518
     4  C    1.017363
     5  C   -0.398525
     6  C   -0.071448
     7  C    1.017363
     8  C   -0.398517
     9  C   -0.071710
    10  C   -0.775219
    11  C   -0.071448
    12  C   -0.398525
    13  H    0.180045
    14  H    0.180004
    15  H    0.180004
    16  H    0.180045
    17  H    0.165232
    18  H    0.165234
    19  H    0.165232
    20  H    0.165234
    21  N   -0.287066
    22  B    0.290468
    23  B    0.290485
    24  H   -0.070124
    25  N   -0.498676
    26  H   -0.070092
    27  N   -0.498706
    28  B    0.341881
    29  H    0.280627
    30  H    0.280614
    31  H   -0.051868
    32  N   -0.287067
    33  B    0.290468
    34  B    0.290485
    35  H   -0.070124
    36  N   -0.498676
    37  H   -0.070092
    38  N   -0.498706
    39  B    0.341881
    40  H    0.280627
    41  H    0.280614
    42  H   -0.051868
 Sum of Mulliken charges =   0.00000

 Dipole moment (field-independent basis, Debye):
    X=             -0.0000    Y=              0.0000    Z=              0.0009  Tot=              0.0009
 Quadrupole moment (field-independent basis, Debye-Ang):
   XX=           -130.1678   YY=           -118.8913   ZZ=           -145.0803
   XY=             -0.0007   XZ=              0.0000   YZ=             -0.0000

  Exact polarizability:     229.788       0.034     454.760      -0.000      -0.000     161.010
 Approx polarizability:     395.515       0.017     519.504      -0.000      -0.000     259.666

                      1                      2                      3
                      A                      A                      A
 Frequencies --     21.7966                36.1052                37.6168
 Red. masses --      6.0113                 5.5944                 3.8282
 Frc consts  --      0.0017                 0.0043                 0.0032
 IR Inten    --      0.2813                 0.1529                 0.0000

                      4                      5                      6
                      A                      A                      A
 Frequencies --     62.0671                65.3119                85.7264
 Red. masses --      5.3519                 3.8708                 4.6596
 Frc consts  --      0.0121                 0.0097                 0.0202
 IR Inten    --      0.0215                 1.4019                 0.1882

                      7                      8                      9
                      A                      A                      A
 Frequencies --     87.8790               121.9971               148.2100
 Red. masses --      3.8593                 5.3545                 4.4334
 Frc consts  --      0.0176                 0.0470                 0.0574
 IR Inten    --      0.0000                 0.4090                 0.2218

                     10                     11                     12
                      A                      A                      A
 Frequencies --    161.9439               209.9848               257.5206
 Red. masses --      6.9724                 4.6209                 3.2571
 Frc consts  --      0.1077                 0.1200                 0.1273
 IR Inten    --      0.0000                 0.1640                 0.0034

                     13                     14                     15
                      A                      A                      A
 Frequencies --    287.4794               290.1429               294.2788
 Red. masses --      3.0703                 2.8628                 3.5414
 Frc consts  --      0.1495                 0.1420                 0.1807
 IR Inten    --      0.5980                 0.0000                 0.0021

                     16                     17                     18
                      A                      A                      A
 Frequencies --    308.0906               310.1377               401.5936
 Red. masses --      5.8611                 4.8922                 3.5682
 Frc consts  --      0.3278                 0.2772                 0.3391
 IR Inten    --     12.2004                 1.8392                 3.0780

                     19                     20                     21
                      A                      A                      A
 Frequencies --    412.6457               423.8864               424.0065
 Red. masses --      2.2494                 4.0482                 2.9973
 Frc consts  --      0.2257                 0.4286                 0.3175
 IR Inten    --      6.9316                 0.0000                 0.0032

                     22                     23                     24
                      A                      A                      A
 Frequencies --    429.6752               430.0266               437.5341
 Red. masses --      4.6777                 2.5587                 4.3194
 Frc consts  --      0.5088                 0.2788                 0.4872
 IR Inten    --      1.2036                17.7894                 0.0001

                     25                     26                     27
                      A                      A                      A
 Frequencies --    479.7296               495.4249               531.9970
 Red. masses --      4.2457                 4.0151                 6.3390
 Frc consts  --      0.5757                 0.5806                 1.0570
 IR Inten    --      2.3045                 5.2250                 0.8533

                     28                     29                     30
                      A                      A                      A
 Frequencies --    532.5827               554.5711               577.7850
 Red. masses --      6.6217                 2.7657                 7.6024
 Frc consts  --      1.1066                 0.5012                 1.4953
 IR Inten    --      0.7088                20.2958                 2.9833

                     31                     32                     33
                      A                      A                      A
 Frequencies --    585.6739               632.5763               649.8659
 Red. masses --      2.1852                 6.2630                 6.4059
 Frc consts  --      0.4416                 1.4766                 1.5940
 IR Inten    --      8.4318                 0.0000                 0.1048

                     34                     35                     36
                      A                      A                      A
 Frequencies --    658.3217               709.0863               709.1558
 Red. masses --      6.7015                 1.1667                 1.1629
 Frc consts  --      1.7112                 0.3456                 0.3446
 IR Inten    --      0.0489                 0.1453                 0.0000

                     37                     38                     39
                      A                      A                      A
 Frequencies --    722.5863               724.0491               724.1695
 Red. masses --      6.5092                 1.2497                 1.2465
 Frc consts  --      2.0024                 0.3860                 0.3851
 IR Inten    --      0.0548                27.4598                70.3189

                     40                     41                     42
                      A                      A                      A
 Frequencies --    743.8407               763.3545               786.5876
 Red. masses --      3.7041                 3.8010                 6.4738
 Frc consts  --      1.2075                 1.3050                 2.3600
 IR Inten    --      5.7346                 0.2047                 0.0000

                     43                     44                     45
                      A                      A                      A
 Frequencies --    838.5214               839.5676               843.8556
 Red. masses --      1.2481                 1.2411                 1.6245
 Frc consts  --      0.5171                 0.5154                 0.6816
 IR Inten    --      1.0722                 0.0002                47.5361

                     46                     47                     48
                      A                      A                      A
 Frequencies --    869.6068               910.7901               912.0533
 Red. masses --      1.7979                 3.5091                 3.2380
 Frc consts  --      0.8011                 1.7151                 1.5870
 IR Inten    --      8.0868                12.1509                 0.0014

                     49                     50                     51
                      A                      A                      A
 Frequencies --    914.2732               914.3318               919.5684
 Red. masses --      1.5715                 1.5671                 1.5370
 Frc consts  --      0.7739                 0.7719                 0.7658
 IR Inten    --      2.1496                18.5305                 4.1899

                     52                     53                     54
                      A                      A                      A
 Frequencies --    919.8897               926.2526               926.3433
 Red. masses --      1.5773                 1.5287                 1.5285
 Frc consts  --      0.7864                 0.7727                 0.7728
 IR Inten    --      0.0000                60.7142               194.0457

                     55                     56                     57
                      A                      A                      A
 Frequencies --    939.0220               939.1641               957.3426
 Red. masses --      5.3988                 5.3224                 1.3605
 Frc consts  --      2.8048                 2.7659                 0.7346
 IR Inten    --      8.8438                 0.0000                 0.0796

                     58                     59                     60
                      A                      A                      A
 Frequencies --    963.5297               969.9998               971.8230
 Red. masses --      1.4212                 1.4265                 1.4061
 Frc consts  --      0.7774                 0.7908                 0.7824
 IR Inten    --      0.5787                 2.3085                 0.3531

                     61                     62                     63
                      A                      A                      A
 Frequencies --    975.9866               976.0292               982.5630
 Red. masses --      1.3804                 1.5269                 2.3882
 Frc consts  --      0.7747                 0.8570                 1.3584
 IR Inten    --      1.6547                 0.0000                 0.0027

                     64                     65                     66
                      A                      A                      A
 Frequencies --    987.1705              1022.0884              1039.9658
 Red. masses --      2.0562                 5.9963                 2.5994
 Frc consts  --      1.1806                 3.6907                 1.6564
 IR Inten    --      0.0000                14.4050                 0.0000

                     67                     68                     69
                      A                      A                      A
 Frequencies --   1058.6579              1064.3462              1064.3476
 Red. masses --      2.1387                 1.0878                 1.0877
 Frc consts  --      1.4122                 0.7260                 0.7260
 IR Inten    --      0.4521                 0.3029                 0.1817

                     70                     71                     72
                      A                      A                      A
 Frequencies --   1097.1540              1097.6744              1145.9329
 Red. masses --      1.2570                 1.2650                 1.5140
 Frc consts  --      0.8915                 0.8980                 1.1714
 IR Inten    --      0.0000                 7.6090                 5.4033

                     73                     74                     75
                      A                      A                      A
 Frequencies --   1147.1304              1198.4469              1198.7441
 Red. masses --      1.3610                 1.7879                 1.7689
 Frc consts  --      1.0552                 1.5130                 1.4976
 IR Inten    --      5.0571                 3.2924                11.7886

                     76                     77                     78
                      A                      A                      A
 Frequencies --   1215.4616              1218.2732              1218.3295
 Red. masses --      1.1240                 8.0723                 7.9981
 Frc consts  --      0.9784                 7.0589                 6.9946
 IR Inten    --     13.3770                 1.3765                 6.7745

                     79                     80                     81
                      A                      A                      A
 Frequencies --   1222.9492              1275.7090              1280.0559
 Red. masses --      1.1398                 3.5507                 3.6282
 Frc consts  --      1.0043                 3.4046                 3.5027
 IR Inten    --      0.0000                58.5549                 0.0000

                     82                     83                     84
                      A                      A                      A
 Frequencies --   1293.6706              1308.9074              1316.0378
 Red. masses --      4.8498                 3.4010                 6.5856
 Frc consts  --      4.7821                 3.4330                 6.7202
 IR Inten    --      1.5999                 0.0000                 0.8253

                     85                     86                     87
                      A                      A                      A
 Frequencies --   1338.9242              1340.6083              1366.4876
 Red. masses --      1.4199                 1.4014                 1.6886
 Frc consts  --      1.4998                 1.4839                 1.8577
 IR Inten    --      0.3940                 0.8400                 1.9960

                     88                     89                     90
                      A                      A                      A
 Frequencies --   1366.9016              1393.9033              1397.3177
 Red. masses --      1.7054                 2.3278                 2.2996
 Frc consts  --      1.8773                 2.6648                 2.6454
 IR Inten    --      5.8244               700.2166                 0.0000

                     91                     92                     93
                      A                      A                      A
 Frequencies --   1425.0937              1433.9620              1448.0746
 Red. masses --      3.0564                 3.8682                 3.9102
 Frc consts  --      3.6571                 4.6863                 4.8309
 IR Inten    --    206.5200               156.0990               353.5292

                     94                     95                     96
                      A                      A                      A
 Frequencies --   1461.8751              1481.9191              1484.8170
 Red. masses --      3.4330                 3.2540                 3.3833
 Frc consts  --      4.3226                 4.2103                 4.3948
 IR Inten    --     66.8480              1872.6920                 0.0000

                     97                     98                     99
                      A                      A                      A
 Frequencies --   1531.4185              1556.9001              1591.6187
 Red. masses --      2.3287                 2.7950                 6.1341
 Frc consts  --      3.2178                 3.9916                 9.1554
 IR Inten    --    183.7946                 0.0000                 5.2835

                    100                    101                    102
                      A                      A                      A
 Frequencies --   1611.1533              1647.8817              1652.9480
 Red. masses --      7.0861                 5.6800                 5.8202
 Frc consts  --     10.8376                 9.0876                 9.3694
 IR Inten    --      0.0186                 0.0000                30.8088

                    103                    104                    105
                      A                      A                      A
 Frequencies --   2618.2879              2618.5519              2628.0125
 Red. masses --      1.0998                 1.0999                 1.0973
 Frc consts  --      4.4424                 4.4436                 4.4653
 IR Inten    --    601.0244                 0.0000               117.2585

                    106                    107                    108
                      A                      A                      A
 Frequencies --   2628.0832              2635.7649              2635.8511
 Red. masses --      1.0974                 1.1003                 1.1004
 Frc consts  --      4.4656                 4.5038                 4.5043
 IR Inten    --    255.2026                 8.3384                 0.0003

                    109                    110                    111
                      A                      A                      A
 Frequencies --   3165.4014              3165.5088              3169.1738
 Red. masses --      1.0879                 1.0880                 1.0876
 Frc consts  --      6.4222                 6.4236                 6.4357
 IR Inten    --     45.0847                 0.7888                 0.0000

                    112                    113                    114
                      A                      A                      A
 Frequencies --   3169.9681              3184.4171              3185.6350
 Red. masses --      1.0873                 1.0940                 1.0938
 Frc consts  --      6.4375                 6.5360                 6.5402
 IR Inten    --      0.9976                 4.3221                23.6970

                    115                    116                    117
                      A                      A                      A
 Frequencies --   3186.5106              3188.4235              3628.9568
 Red. masses --      1.0946                 1.0948                 1.0765
 Frc consts  --      6.5484                 6.5575                 8.3525
 IR Inten    --      9.7352                 0.0000                56.4727

                    118                    119                    120
                      A                      A                      A
 Frequencies --   3628.9971              3630.1460              3630.1495
 Red. masses --      1.0765                 1.0758                 1.0758
 Frc consts  --      8.3528                 8.3530                 8.3531
 IR Inten    --      0.0003                28.0597                75.2211

 - Thermochemistry -
 -------------------
 Temperature   298.150 Kelvin.  Pressure   1.00000 Atm.
 Atom     1 has atomic number  6 and mass  12.00000

 Molecular mass:   312.21513 amu.
 Principal axes and moments of inertia in atomic units:
                           1         2         3
     Eigenvalues --  1305.38129********************
           X            0.00016   1.00000   0.00000
           Y            1.00000  -0.00016   0.00000
           Z           -0.00000  -0.00000   1.00000
 This molecule is an asymmetric top.
 Rotational symmetry number  2.
 Warning -- assumption of classical behavior for rotation
           may cause significant error
 Rotational temperatures (Kelvin)      0.06635     0.00310     0.00301
 Rotational constants (GHZ):           1.38254     0.06460     0.06280
 Zero-point vibrational energy     857951.1 (Joules/Mol)
                                  205.05524 (Kcal/Mol)
 Warning -- explicit consideration of  31 degrees of freedom as
           vibrations may cause significant error
 Vibrational temperatures:     31.36    51.95    54.12    89.30    93.97
          (Kelvin)            123.34   126.44   175.53   213.24   233.00
                              302.12   370.51   413.62   417.45   423.40
                              443.27   446.22   577.80   593.71   609.88
                              610.05   618.21   618.71   629.51   690.22
                              712.81   765.43   766.27   797.90   831.30
                              842.65   910.14   935.01   947.18  1020.22
                             1020.32  1039.64  1041.75  1041.92  1070.22
                             1098.30  1131.72  1206.45  1207.95  1214.12
                             1251.17  1310.42  1312.24  1315.44  1315.52
                             1323.05  1323.52  1332.67  1332.80  1351.04
                             1351.25  1377.40  1386.30  1395.61  1398.24
                             1404.23  1404.29  1413.69  1420.32  1470.56
                             1496.28  1523.17  1531.36  1531.36  1578.56
                             1579.31  1648.74  1650.46  1724.30  1724.73
                             1748.78  1752.82  1752.90  1759.55  1835.46
                             1841.71  1861.30  1883.23  1893.48  1926.41
                             1928.84  1966.07  1966.67  2005.52  2010.43
                             2050.39  2063.15  2083.46  2103.31  2132.15
                             2136.32  2203.37  2240.03  2289.98  2318.09
                             2370.93  2378.22  3767.13  3767.51  3781.12
                             3781.23  3792.28  3792.40  4554.31  4554.46
                             4559.73  4560.88  4581.67  4583.42  4584.68
                             4587.43  5221.26  5221.32  5222.97  5222.98

 Zero-point correction=                           0.326776 (Hartree/Particle)
 Thermal correction to Energy=                    0.346670
 Thermal correction to Enthalpy=                  0.347614
 Thermal correction to Gibbs Free Energy=         0.277678
 Sum of electronic and zero-point Energies=           -946.200822
 Sum of electronic and thermal Energies=              -946.180929
 Sum of electronic and thermal Enthalpies=            -946.179985
 Sum of electronic and thermal Free Energies=         -946.249920

                     E (Thermal)             CV                S
                      KCal/Mol        Cal/Mol-Kelvin    Cal/Mol-Kelvin
 Total                  217.538             80.950            147.193
 Electronic               0.000              0.000              0.000
 Translational            0.889              2.981             43.112
 Rotational               0.889              2.981             33.926
 Vibrational            215.761             74.989             70.154
 Vibration     1          0.593              1.985              6.463
 Vibration     2          0.594              1.982              5.462
 Vibration     3          0.594              1.982              5.381
 Vibration     4          0.597              1.972              4.390
 Vibration     5          0.597              1.971              4.290
 Vibration     6          0.601              1.959              3.755
 Vibration     7          0.601              1.958              3.707
 Vibration     8          0.609              1.931              3.068
 Vibration     9          0.618              1.905              2.695
 Vibration    10          0.622              1.889              2.527
 Vibration    11          0.642              1.826              2.044
 Vibration    12          0.667              1.750              1.679
 Vibration    13          0.685              1.697              1.489
 Vibration    14          0.686              1.692              1.473
 Vibration    15          0.689              1.684              1.449
 Vibration    16          0.698              1.658              1.373
 Vibration    17          0.699              1.654              1.362
 Vibration    18          0.767              1.467              0.957
 Vibration    19          0.776              1.443              0.917
 Vibration    20          0.786              1.418              0.879
 Vibration    21          0.786              1.418              0.878
 Vibration    22          0.791              1.406              0.860
 Vibration    23          0.791              1.405              0.859
 Vibration    24          0.798              1.388              0.834
 Vibration    25          0.836              1.295              0.711
 Vibration    26          0.851              1.260              0.670
 Vibration    27          0.887              1.179              0.583
 Vibration    28          0.888              1.178              0.581
 Vibration    29          0.910              1.130              0.535
 Vibration    30          0.934              1.079              0.489
 Vibration    31          0.943              1.062              0.475

 Optimization completed.
    -- Stationary point found.
 Normal termination of Gaussian 16 at Sat Oct 17 09:05:11 2020.
