 Gaussian 16, Revision C.01,
 Gaussian 16:  ES64L-G16RevC.01  3-Jul-2019

 ----------------------------------------------------------------------
 #P B3LYP/6-311++G(d,p) EmpiricalDispersion=GD3 freq(noraman) SCF=YQC N
 oSymm
 ----------------------------------------------------------------------

 --------------------------------------
 Restart from PMDA_Nitrile_Triazine.log
 --------------------------------------
 Symbolic Z-matrix:
 Charge =  0 Multiplicity = 1

                          Input orientation:
 ---------------------------------------------------------------------
 Center     Atomic      Atomic             Coordinates (Angstroms)
 Number     Number       Type             X           Y           Z
 ---------------------------------------------------------------------
      1          6           0        2.664346   -0.787453   -0.577886
      2          6           0        1.218377   -0.493063   -0.356718
      3          6           0        0.105851   -1.161669   -0.853274
      4          1           0        0.185148   -2.028753   -1.496730
      5          6           0       -1.116397   -0.631739   -0.457549
      6          6           0       -2.493059   -1.093950   -0.800419
      7          6           0       -1.218578    0.486005    0.371166
      8          6           0       -2.664553    0.780378    0.592316
      9          6           0       -0.106059    1.154612    0.867714
     10          1           0       -0.185337    2.021722    1.511139
     11          6           0        1.116189    0.624662    0.472011
     12          6           0        2.492852    1.086800    0.814971
     13          7           0       -3.374760   -0.204126   -0.138341
     14          7           0        3.374567    0.197098    0.152709
     15          8           0       -3.148414    1.663989    1.252148
     16          8           0       -2.810580   -2.025226   -1.494799
     17          8           0        2.810403    2.018238    1.509109
     18          8           0        3.148184   -1.671023   -1.237779
     19          6           0       -4.796237   -0.288503   -0.199596
     20          6           0        4.796029    0.281584    0.213995
     21          6           0       -5.555001    0.874260   -0.355492
     22          6           0       -6.938733    0.788586   -0.410042
     23          1           0       -5.065706    1.835813   -0.420824
     24          6           0       -7.581301   -0.453589   -0.319038
     25          1           0       -7.534476    1.683767   -0.528324
     26          6           0       -6.806884   -1.611794   -0.167371
     27          6           0       -5.423122   -1.533421   -0.103189
     28          1           0       -7.300835   -2.571559   -0.095868
     29          1           0       -4.831269   -2.430893    0.008633
     30          6           0        5.422798    1.526572    0.117724
     31          6           0        6.806531    1.605105    0.182128
     32          1           0        4.830840    2.423967    0.005784
     33          6           0        7.581042    0.446965    0.333854
     34          1           0        7.300398    2.564911    0.110668
     35          6           0        6.938609   -0.795309    0.424521
     36          6           0        5.554890   -0.881133    0.369756
     37          1           0        7.534463   -1.690443    0.542557
     38          1           0        5.065657   -1.842731    0.434933
     39          6           0       -9.055563   -0.540916   -0.381977
     40          7           0       -9.626335   -1.754585   -0.283267
     41          6           0      -10.953988   -1.766966   -0.346470
     42          7           0       -9.754872    0.597553   -0.534824
     43          6           0      -11.075292    0.453178   -0.584411
     44          7           0      -11.743551   -0.700047   -0.496478
     45          1           0      -11.665160    1.357217   -0.707852
     46          1           0      -11.441601   -2.734794   -0.268935
     47          6           0        9.055282    0.534360    0.397266
     48          7           0        9.625930    1.748144    0.299662
     49          6           0       10.953577    1.760622    0.363044
     50          7           0        9.754684   -0.604202    0.549347
     51          6           0       11.075054   -0.459717    0.599326
     52          7           0       11.743206    0.693661    0.512302
     53          1           0       11.664996   -1.363798    0.722088
     54          1           0       11.441077    2.728564    0.286278
 ---------------------------------------------------------------------

 SCF Done:  E(RB3LYP) =  -1814.91089377     a.u. after    8 cycles
 SCF Done:  E(RB3LYP) =  -1814.91091803     A.U. after   10 cycles

 Alpha  occ. eigenvalues --  -19.15466 -19.15466 -19.15465 -19.15465 -14.40529
 Alpha  occ. eigenvalues --  -14.40528 -14.34222 -14.34222 -14.34221 -14.34221
 Alpha  occ. eigenvalues --  -14.34058 -14.34057 -10.33239 -10.33239 -10.33239
 Alpha  occ. eigenvalues --  -10.33238 -10.28365 -10.28365 -10.27183 -10.27183
 Alpha  occ. eigenvalues --  -10.27183 -10.27183 -10.25245 -10.25244 -10.24678
 Alpha  occ. eigenvalues --  -10.24669 -10.24630 -10.24613 -10.24520 -10.24515
 Alpha  occ. eigenvalues --  -10.20904 -10.20904 -10.20210 -10.20209 -10.20209
 Alpha  occ. eigenvalues --  -10.20208 -10.20024 -10.20024 -10.20023 -10.20022
 Alpha  occ. eigenvalues --   -1.11347  -1.11302  -1.09613  -1.09602  -1.04604
 Alpha  occ. eigenvalues --   -1.04604  -1.00491  -1.00327  -0.93593  -0.92870
 Alpha  occ. eigenvalues --   -0.92818  -0.92230  -0.92230  -0.89373  -0.88280
 Alpha  occ. eigenvalues --   -0.85104  -0.82470  -0.80607  -0.78212  -0.77890
 Alpha  occ. eigenvalues --   -0.77890  -0.74120  -0.72481  -0.70802  -0.70567
 Alpha  occ. eigenvalues --   -0.70537  -0.69080  -0.68785  -0.65898  -0.64927
 Alpha  occ. eigenvalues --   -0.63947  -0.63693  -0.62640  -0.61221  -0.58819
 Alpha  occ. eigenvalues --   -0.57880  -0.56931  -0.56802  -0.56648  -0.56603
 Alpha  occ. eigenvalues --   -0.54715  -0.54231  -0.51925  -0.51228  -0.50607
 Alpha  occ. eigenvalues --   -0.50569  -0.50282  -0.49623  -0.49031  -0.48938
 Alpha  occ. eigenvalues --   -0.48128  -0.48067  -0.47469  -0.47436  -0.47396
 Alpha  occ. eigenvalues --   -0.47354  -0.46107  -0.45870  -0.45747  -0.45285
 Alpha  occ. eigenvalues --   -0.45265  -0.44284  -0.44131  -0.43993  -0.43674
 Alpha  occ. eigenvalues --   -0.42694  -0.42108  -0.40637  -0.40301  -0.40280
 Alpha  occ. eigenvalues --   -0.40221  -0.39082  -0.39081  -0.37931  -0.37916
 Alpha  occ. eigenvalues --   -0.36042  -0.35968  -0.34832  -0.34831  -0.33208
 Alpha  occ. eigenvalues --   -0.33142  -0.32903  -0.32747  -0.32159  -0.31968
 Alpha  occ. eigenvalues --   -0.30966  -0.30433  -0.29109  -0.29108  -0.28521
 Alpha  occ. eigenvalues --   -0.28518  -0.28157  -0.28145  -0.26726  -0.26258
 Alpha virt. eigenvalues --   -0.13896  -0.10713  -0.09252  -0.08444  -0.08156
 Alpha virt. eigenvalues --   -0.07063  -0.07063  -0.03384  -0.03340  -0.01987
 Alpha virt. eigenvalues --   -0.01738  -0.01417  -0.00810  -0.00474   0.00256

 Mulliken charges:
               1
     1  C   -0.001722
     2  C    0.214712
     3  C   -0.728208
     4  H    0.228227
     5  C    0.214614
     6  C   -0.001314
     7  C    0.214851
     8  C   -0.001830
     9  C   -0.728245
    10  H    0.228223
    11  C    0.214713
    12  C   -0.001409
    13  N    0.392081
    14  N    0.392007
    15  O   -0.241475
    16  O   -0.241535
    17  O   -0.241511
    18  O   -0.241490
    19  C   -0.873655
    20  C   -0.873600
    21  C   -0.038504
    22  C   -0.289965
    23  H    0.217711
    24  C    0.720296
    25  H    0.228641
    26  C   -0.290132
    27  C   -0.038165
    28  H    0.228633
    29  H    0.217721
    30  C   -0.038288
    31  C   -0.290002
    32  H    0.217721
    33  C    0.720318
    34  H    0.228616
    35  C   -0.290124
    36  C   -0.038530
    37  H    0.228650
    38  H    0.217713
    39  C   -0.355153
    40  N    0.002393
    41  C    0.076798
    42  N    0.002402
    43  C    0.076794
    44  N   -0.138649
    45  H    0.208757
    46  H    0.208754
    47  C   -0.355080
    48  N    0.002404
    49  C    0.076807
    50  N    0.002394
    51  C    0.076796
    52  N   -0.138664
    53  H    0.208753
    54  H    0.208750
 Sum of Mulliken charges =   0.00000

 Dipole moment (field-independent basis, Debye):
    X=             -0.0003    Y=             -0.0001    Z=              0.0001  Tot=              0.0003
 Quadrupole moment (field-independent basis, Debye-Ang):
   XX=           -248.6125   YY=           -225.9053   ZZ=           -235.5395
   XY=             -0.7695   XZ=              0.2364   YZ=            -13.4664

  Exact polarizability:     810.224      26.547     342.665      23.916      31.547     212.521
 Approx polarizability:     922.278      10.798     679.859      18.216      84.954     381.635

                      1                      2                      3
                      A                      A                      A
 Frequencies --      8.7081                19.8539                23.5329
 Red. masses --      9.3399                 8.8205                 9.2496
 Frc consts  --      0.0004                 0.0020                 0.0030
 IR Inten    --      0.0037                 0.0057                 0.0000

                      4                      5                      6
                      A                      A                      A
 Frequencies --     26.1986                33.9186                42.7800
 Red. masses --      5.1776                 6.3934                 9.0816
 Frc consts  --      0.0021                 0.0043                 0.0098
 IR Inten    --      0.1797                 0.0000                 0.0000

                      7                      8                      9
                      A                      A                      A
 Frequencies --     58.4065                65.3798                70.8160
 Red. masses --      5.0721                 8.5663                 4.1715
 Frc consts  --      0.0102                 0.0216                 0.0123
 IR Inten    --      0.2167                 0.0796                 0.0000

                     10                     11                     12
                      A                      A                      A
 Frequencies --     83.6047                89.2642               103.4229
 Red. masses --      7.9714                 9.5867                 8.6310
 Frc consts  --      0.0328                 0.0450                 0.0544
 IR Inten    --      1.9917                 0.0000                 0.8049

                     13                     14                     15
                      A                      A                      A
 Frequencies --    122.3475               123.8080               127.9942
 Red. masses --      9.3147                 9.0807                10.2837
 Frc consts  --      0.0822                 0.0820                 0.0993
 IR Inten    --      0.0000                 0.0000                 7.0981

                     16                     17                     18
                      A                      A                      A
 Frequencies --    140.8874               177.2678               186.8619
 Red. masses --     10.5861                 8.0225                10.3512
 Frc consts  --      0.1238                 0.1485                 0.2130
 IR Inten    --      4.8675                 0.0000                 0.0000

                     19                     20                     21
                      A                      A                      A
 Frequencies --    194.4001               195.5631               203.6835
 Red. masses --      5.5871                 8.0712                10.9221
 Frc consts  --      0.1244                 0.1819                 0.2670
 IR Inten    --      0.0000                 2.7532                 4.8909

                     22                     23                     24
                      A                      A                      A
 Frequencies --    212.6861               261.5885               269.0450
 Red. masses --     10.5867                10.1714                10.0097
 Frc consts  --      0.2822                 0.4101                 0.4269
 IR Inten    --      3.6310                 0.0000                 0.0000

                     25                     26                     27
                      A                      A                      A
 Frequencies --    291.0780               331.1861               331.5369
 Red. masses --     13.6662                 6.7230                 6.5699
 Frc consts  --      0.6822                 0.4345                 0.4255
 IR Inten    --      0.0000                 2.1666                 0.0012

                     28                     29                     30
                      A                      A                      A
 Frequencies --    353.8292               353.8461               372.2106
 Red. masses --      3.4316                 3.4318                 6.9603
 Frc consts  --      0.2531                 0.2532                 0.5681
 IR Inten    --      0.0045                 0.0040                 2.1201

                     31                     32                     33
                      A                      A                      A
 Frequencies --    383.7017               390.1509               396.6078
 Red. masses --     10.2319                 8.6442                 8.2313
 Frc consts  --      0.8875                 0.7753                 0.7629
 IR Inten    --     61.6561                 0.0000                 0.0000

                     34                     35                     36
                      A                      A                      A
 Frequencies --    418.5199               418.6956               419.5457
 Red. masses --      2.9835                 3.0194                 3.3235
 Frc consts  --      0.3079                 0.3119                 0.3447
 IR Inten    --      4.5881                 0.0004                 0.5815

                     37                     38                     39
                      A                      A                      A
 Frequencies --    470.1879               476.0218               478.0868
 Red. masses --      8.1654                 5.0317                 4.9907
 Frc consts  --      1.0636                 0.6718                 0.6721
 IR Inten    --      0.1136                 5.5479                 0.0002

                     40                     41                     42
                      A                      A                      A
 Frequencies --    501.0304               501.8343               502.4050
 Red. masses --      3.4913                 3.5357                12.2036
 Frc consts  --      0.5164                 0.5246                 1.8149
 IR Inten    --     34.1088                 0.0016                 0.3351

                     43                     44                     45
                      A                      A                      A
 Frequencies --    572.8158               573.3758               577.2367
 Red. masses --      6.2398                11.7331                 4.4828
 Frc consts  --      1.2063                 2.2727                 0.8801
 IR Inten    --      6.5685                 0.0000                 0.0000

                     46                     47                     48
                      A                      A                      A
 Frequencies --    584.5354               585.0051               631.6626
 Red. masses --      3.0406                 2.9504                12.0783
 Frc consts  --      0.6121                 0.5949                 2.8394
 IR Inten    --      0.0000                 1.8366                35.2766

                     49                     50                     51
                      A                      A                      A
 Frequencies --    646.4429               646.8830               648.3465
 Red. masses --      6.9783                 7.0748                 8.1210
 Frc consts  --      1.7182                 1.7443                 2.0113
 IR Inten    --      0.0000                 0.8735                 0.0000

                     52                     53                     54
                      A                      A                      A
 Frequencies --    654.4857               690.1971               712.2246
 Red. masses --     10.0944                 7.9186                 9.2757
 Frc consts  --      2.5476                 2.2225                 2.7722
 IR Inten    --      0.0000                20.3040                 0.0028

                     55                     56                     57
                      A                      A                      A
 Frequencies --    712.2526               732.7347               733.6329
 Red. masses --      9.2903                 5.4983                 5.3049
 Frc consts  --      2.7768                 1.7393                 1.6822
 IR Inten    --     25.8380                31.0113                 0.0004

                     58                     59                     60
                      A                      A                      A
 Frequencies --    733.6449               742.1291               765.9329
 Red. masses --      6.1600                 4.4417                 5.7496
 Frc consts  --      1.9535                 1.4413                 1.9873
 IR Inten    --      0.0008                 7.3226                 0.0000

                     61                     62                     63
                      A                      A                      A
 Frequencies --    768.4870               787.4329               790.4328
 Red. masses --      9.0468                 7.1154                 6.9481
 Frc consts  --      3.1479                 2.5994                 2.5577
 IR Inten    --      0.0000                 0.0000               106.4830

                     64                     65                     66
                      A                      A                      A
 Frequencies --    794.7498               797.9729               823.6523
 Red. masses --      6.1161                11.5107                 2.7553
 Frc consts  --      2.2761                 4.3184                 1.1013
 IR Inten    --      0.0000                 1.5492               169.6843

                     67                     68                     69
                      A                      A                      A
 Frequencies --    832.5728               846.3237               846.6075
 Red. masses --      2.7923                 1.3072                 1.2553
 Frc consts  --      1.1404                 0.5517                 0.5301
 IR Inten    --      0.0000                 0.0002                 0.6002

                     70                     71                     72
                      A                      A                      A
 Frequencies --    849.6804               856.9196               881.7469
 Red. masses --      8.3317                 5.7643                 2.5733
 Frc consts  --      3.5440                 2.4939                 1.1788
 IR Inten    --     33.1981                 0.0000                 0.0001

                     73                     74                     75
                      A                      A                      A
 Frequencies --    883.1766               883.9550               942.8162
 Red. masses --      4.9724                 2.6117                 1.3460
 Frc consts  --      2.2852                 1.2023                 0.7049
 IR Inten    --     53.1559                16.6164                 0.0000

                     76                     77                     78
                      A                      A                      A
 Frequencies --    950.7170               974.7469               974.7626
 Red. masses --      1.5117                 1.5664                 1.5665
 Frc consts  --      0.8050                 0.8769                 0.8770
 IR Inten    --     12.3010                 0.5168                 2.7776

                     79                     80                     81
                      A                      A                      A
 Frequencies --    991.1772               991.2348              1000.5804
 Red. masses --      1.3591                 1.3591                 1.3634
 Frc consts  --      0.7867                 0.7868                 0.8042
 IR Inten    --      0.0112                 4.3807                 0.0003

                     82                     83                     84
                      A                      A                      A
 Frequencies --   1000.5860              1010.2115              1010.3204
 Red. masses --      1.3635                12.8630                12.8993
 Frc consts  --      0.8043                 7.7342                 7.7578
 IR Inten    --      0.0114                60.4289                 0.0019

                     85                     86                     87
                      A                      A                      A
 Frequencies --   1034.4967              1034.5069              1037.3338
 Red. masses --      1.4791                 1.4791                 3.1040
 Frc consts  --      0.9326                 0.9326                 1.9679
 IR Inten    --      0.0004                 0.0004                16.0785

                     88                     89                     90
                      A                      A                      A
 Frequencies --   1037.3992              1065.8266              1087.9106
 Red. masses --      3.1444                10.9370                 2.5009
 Frc consts  --      1.9938                 7.3202                 1.7440
 IR Inten    --      0.0001                 0.0000                10.5815

                     91                     92                     93
                      A                      A                      A
 Frequencies --   1095.1120              1097.5709              1101.4675
 Red. masses --      4.5491                 8.0996                 2.4154
 Frc consts  --      3.2143                 5.7488                 1.7266
 IR Inten    --      0.0000               199.3276                 0.9879

                     94                     95                     96
                      A                      A                      A
 Frequencies --   1113.6088              1142.5570              1152.8194
 Red. masses --      7.0064                 4.3549                 1.8058
 Frc consts  --      5.1193                 3.3496                 1.4140
 IR Inten    --      0.0002                 0.0000                27.8057

                     97                     98                     99
                      A                      A                      A
 Frequencies --   1153.9316              1175.6715              1176.4670
 Red. masses --      1.8437                 5.3036                 3.8341
 Frc consts  --      1.4464                 4.3191                 3.1266
 IR Inten    --      0.0001                 8.6028                 0.0001

                    100                    101                    102
                      A                      A                      A
 Frequencies --   1178.8256              1180.1560              1180.3141
 Red. masses --      5.3869                 2.9015                 2.8730
 Frc consts  --      4.4105                 2.3810                 2.3582
 IR Inten    --      5.6768                10.4138                 0.0710

                    103                    104                    105
                      A                      A                      A
 Frequencies --   1199.1711              1219.2659              1220.4047
 Red. masses --      3.1126                 1.1588                 1.2212
 Frc consts  --      2.6372                 1.0150                 1.0716
 IR Inten    --    216.7352                 0.0000               137.8420

                    106                    107                    108
                      A                      A                      A
 Frequencies --   1230.6973              1268.4915              1268.5261
 Red. masses --      1.3056                 3.5181                 3.5171
 Frc consts  --      1.1651                 3.3353                 3.3345
 IR Inten    --      0.0000                 0.0104                 0.0404

                    109                    110                    111
                      A                      A                      A
 Frequencies --   1294.0461              1341.5135              1341.5989
 Red. masses --      7.7338                 1.8424                 1.8296
 Frc consts  --      7.6303                 1.9536                 1.9403
 IR Inten    --      0.0000                 0.0001                 8.0015

                    112                    113                    114
                      A                      A                      A
 Frequencies --   1348.5050              1348.5265              1358.1727
 Red. masses --      2.8998                 2.9329                 2.6233
 Frc consts  --      3.1068                 3.1424                 2.8511
 IR Inten    --      0.1922                19.8443                 1.1467

                    115                    116                    117
                      A                      A                      A
 Frequencies --   1358.6530              1367.7988              1384.0350
 Red. masses --      2.6757                 9.5286                 9.8926
 Frc consts  --      2.9101                10.5032                11.1649
 IR Inten    --      0.0000              2614.1662                 0.0003

                    118                    119                    120
                      A                      A                      A
 Frequencies --   1410.6791              1418.6331              1418.6438
 Red. masses --     10.2182                 1.5513                 1.5510
 Frc consts  --     11.9807                 1.8394                 1.8392
 IR Inten    --     87.6646                 9.5561                58.3605

                    121                    122                    123
                      A                      A                      A
 Frequencies --   1448.9325              1448.9448              1450.2756
 Red. masses --      2.9635                 2.9631                 2.3987
 Frc consts  --      3.6657                 3.6652                 2.9725
 IR Inten    --      0.4524                 0.1097               965.0821

                    124                    125                    126
                      A                      A                      A
 Frequencies --   1451.0428              1476.3403              1484.4876
 Red. masses --      2.3993                 3.3015                10.3990
 Frc consts  --      2.9764                 4.2397                13.5019
 IR Inten    --      0.0407                17.4119                 1.0286

                    127                    128                    129
                      A                      A                      A
 Frequencies --   1547.2144              1547.3355              1557.6399
 Red. masses --      2.6365                 2.6423                 7.4072
 Frc consts  --      3.7186                 3.7274                10.5885
 IR Inten    --      0.0029                27.0362                 7.1706

                    130                    131                    132
                      A                      A                      A
 Frequencies --   1557.6838              1596.1516              1597.0226
 Red. masses --      7.4087                 5.3832                 5.4214
 Frc consts  --     10.5913                 8.0804                 8.1468
 IR Inten    --    248.0781              1344.7150                 0.0858

                    133                    134                    135
                      A                      A                      A
 Frequencies --   1617.2859              1617.3348              1646.3376
 Red. masses --      7.2553                 7.2563                 7.2992
 Frc consts  --     11.1809                11.1832                11.6564
 IR Inten    --      0.1998                37.2395                 0.0000

                    136                    137                    138
                      A                      A                      A
 Frequencies --   1648.8539              1648.9716              1651.9375
 Red. masses --      5.6567                 7.6528                 7.4326
 Frc consts  --      9.0611                12.2602                11.9503
 IR Inten    --     75.6886                 0.0000                 0.0000

                    139                    140                    141
                      A                      A                      A
 Frequencies --   1781.2806              1785.4941              1829.8332
 Red. masses --     12.9157                12.9598                13.0388
 Frc consts  --     24.1453                24.3424                25.7224
 IR Inten    --      0.0158              1139.8117               126.7744

                    142                    143                    144
                      A                      A                      A
 Frequencies --   1840.4565              3157.8291              3157.8550
 Red. masses --     12.9997                 1.0903                 1.0903
 Frc consts  --     25.9439                 6.4059                 6.4060
 IR Inten    --      0.0003                21.3930                24.7426

                    145                    146                    147
                      A                      A                      A
 Frequencies --   3161.1686              3161.2029              3204.0531
 Red. masses --      1.0947                 1.0947                 1.0893
 Frc consts  --      6.4450                 6.4452                 6.5889
 IR Inten    --     47.1841                 9.9818                 0.0659

                    148                    149                    150
                      A                      A                      A
 Frequencies --   3204.0745              3205.1094              3205.1335
 Red. masses --      1.0893                 1.0888                 1.0888
 Frc consts  --      6.5890                 6.5900                 6.5901
 IR Inten    --      0.0489                 0.1285                 0.1362

                    151                    152                    153
                      A                      A                      A
 Frequencies --   3207.5546              3208.2408              3219.3002
 Red. masses --      1.0937                 1.0934                 1.0943
 Frc consts  --      6.6298                 6.6308                 6.6820
 IR Inten    --      3.8202                 0.0002                 0.4114

                    154                    155                    156
                      A                      A                      A
 Frequencies --   3219.3166              3220.2913              3220.3063
 Red. masses --      1.0943                 1.0954                 1.0954
 Frc consts  --      6.6821                 6.6927                 6.6928
 IR Inten    --      0.4652                 4.9644                 3.1945

 - Thermochemistry -
 -------------------
 Temperature   298.150 Kelvin.  Pressure   1.00000 Atm.
 Atom     1 has atomic number  6 and mass  12.00000

 Molecular mass:   526.11380 amu.
 Principal axes and moments of inertia in atomic units:
                           1         2         3
     Eigenvalues --  2949.26428********************
           X            0.99732  -0.07045  -0.01958
           Y            0.05921   0.93524  -0.34902
           Z            0.04290   0.34693   0.93691
 This molecule is an asymmetric top.
 Rotational symmetry number  1.
 Warning -- assumption of classical behavior for rotation
           may cause significant error
 Rotational temperatures (Kelvin)      0.02937     0.00097     0.00095
 Rotational constants (GHZ):           0.61193     0.02028     0.01979
 Zero-point vibrational energy    1001827.8 (Joules/Mol)
                                  239.44259 (Kcal/Mol)
 Warning -- explicit consideration of  47 degrees of freedom as
           vibrations may cause significant error
 Vibrational temperatures:     12.53    28.57    33.86    37.69    48.80
          (Kelvin)             61.55    84.03    94.07   101.89   120.29
                              128.43   148.80   176.03   178.13   184.16
                              202.71   255.05   268.85   279.70   281.37
                              293.06   306.01   376.37   387.10   418.80
                              476.50   477.01   509.08   509.11   535.53
                              552.06   561.34   570.63   602.16   602.41
                              603.63   676.50   684.89   687.86   720.87
                              722.03   722.85   824.15   824.96   830.51
                              841.02   841.69   908.82   930.09   930.72
                              932.83   941.66   993.04  1024.73  1024.77
                             1054.24  1055.53  1055.55  1067.76  1102.01
                             1105.68  1132.94  1137.26  1143.47  1148.11
                             1185.05  1197.89  1217.67  1218.08  1222.50
                             1232.92  1268.64  1270.69  1271.81  1356.50
                             1367.87  1402.44  1402.47  1426.08  1426.17
                             1439.61  1439.62  1453.47  1453.63  1488.41
                             1488.42  1492.49  1492.59  1533.49  1565.26
                             1575.62  1579.16  1584.77  1602.23  1643.88
                             1658.65  1660.25  1691.53  1692.67  1696.07
                             1697.98  1698.21  1725.34  1754.25  1755.89
                             1770.70  1825.08  1825.13  1861.84  1930.14
                             1930.26  1940.20  1940.23  1954.11  1954.80
                             1967.96  1991.32  2029.65  2041.10  2041.11
                             2084.69  2084.71  2086.62  2087.73  2124.12
                             2135.85  2226.10  2226.27  2241.10  2241.16
                             2296.51  2297.76  2326.91  2326.98  2368.71
                             2372.33  2372.50  2376.77  2562.87  2568.93
                             2632.72  2648.01  4543.41  4543.45  4548.22
                             4548.27  4609.92  4609.95  4611.44  4611.47
                             4614.96  4615.94  4631.85  4631.88  4633.28
                             4633.30

 Zero-point correction=                           0.381576 (Hartree/Particle)
 Thermal correction to Energy=                    0.411382
 Thermal correction to Enthalpy=                  0.412326
 Thermal correction to Gibbs Free Energy=         0.316262
 Sum of electronic and zero-point Energies=          -1814.529342
 Sum of electronic and thermal Energies=             -1814.499537
 Sum of electronic and thermal Enthalpies=           -1814.498592
 Sum of electronic and thermal Free Energies=        -1814.594656

                     E (Thermal)             CV                S
                      KCal/Mol        Cal/Mol-Kelvin    Cal/Mol-Kelvin
 Total                  258.146            115.234            202.184
 Electronic               0.000              0.000              0.000
 Translational            0.889              2.981             44.667
 Rotational               0.889              2.981             38.413
 Vibrational            256.368            109.272            119.104
 Vibration     1          0.593              1.987              8.286
 Vibration     2          0.593              1.986              6.649
 Vibration     3          0.593              1.985              6.311
 Vibration     4          0.593              1.985              6.098
 Vibration     5          0.594              1.983              5.586
 Vibration     6          0.595              1.980              5.126
 Vibration     7          0.596              1.974              4.510
 Vibration     8          0.597              1.971              4.288
 Vibration     9          0.598              1.968              4.131
 Vibration    10          0.600              1.960              3.804
 Vibration    11          0.602              1.957              3.676
 Vibration    12          0.605              1.946              3.389
 Vibration    13          0.610              1.930              3.063
 Vibration    14          0.610              1.929              3.040
 Vibration    15          0.611              1.925              2.976
 Vibration    16          0.615              1.912              2.792
 Vibration    17          0.628              1.870              2.357
 Vibration    18          0.632              1.858              2.259
 Vibration    19          0.635              1.848              2.185
 Vibration    20          0.636              1.846              2.174
 Vibration    21          0.639              1.835              2.100
 Vibration    22          0.644              1.822              2.020
 Vibration    23          0.669              1.743              1.651
 Vibration    24          0.673              1.730              1.602
 Vibration    25          0.687              1.690              1.468
 Vibration    26          0.714              1.613              1.254
 Vibration    27          0.714              1.613              1.253
 Vibration    28          0.730              1.567              1.149
 Vibration    29          0.730              1.567              1.149
 Vibration    30          0.744              1.529              1.071
 Vibration    31          0.753              1.505              1.025
 Vibration    32          0.758              1.491              1.000
 Vibration    33          0.763              1.477              0.975
 Vibration    34          0.781              1.430              0.897
 Vibration    35          0.782              1.430              0.896
 Vibration    36          0.782              1.428              0.894
 Vibration    37          0.827              1.316              0.737
 Vibration    38          0.833              1.303              0.721
 Vibration    39          0.835              1.299              0.715
 Vibration    40          0.856              1.248              0.656
 Vibration    41          0.857              1.246              0.654
 Vibration    42          0.858              1.245              0.652
 Vibration    43          0.929              1.090              0.499
 Vibration    44          0.930              1.089              0.498
 Vibration    45          0.934              1.081              0.491
 Vibration    46          0.941              1.065              0.477
 Vibration    47          0.942              1.064              0.476

 Normal termination of Gaussian 16 at Thu Nov  5 21:10:30 2020.
