 Gaussian 16, Revision C.01,
 Gaussian 16:  ES64L-G16RevC.01  3-Jul-2019

 --------------------------------------------------------------------
 #P B3LYP/6-311++G(d,p) EmpiricalDispersion=GD3 freq(noraman) SCF=YQC
 --------------------------------------------------------------------

 --------------------------------------------------------
 Restart from 2_Phenyl_C_Cyanohydrine_Benzobisoxazole.log
 --------------------------------------------------------
 Symbolic Z-matrix:
 Charge =  0 Multiplicity = 1

                         Standard orientation:
 ---------------------------------------------------------------------
 Center     Atomic      Atomic             Coordinates (Angstroms)
 Number     Number       Type             X           Y           Z
 ---------------------------------------------------------------------
      1          6           0        1.139947   -0.761092    0.000096
      2          6           0        1.161132    0.650657    0.000111
      3          6           0        0.058740    1.489701    0.000108
      4          6           0       -1.139947    0.761092    0.000109
      5          6           0       -1.161133   -0.650656    0.000113
      6          6           0       -0.058740   -1.489701    0.000102
      7          6           0        0.134364    2.988078    0.000239
      8          6           0       -0.134364   -2.988078    0.000168
      9          1           0        0.867365   -3.417313   -0.001833
     10          1           0       -0.669398   -3.352752    0.882074
     11          1           0       -0.673030   -3.352651   -0.879544
     12          1           0       -0.867363    3.417313   -0.002820
     13          1           0        0.668426    3.352762    0.882735
     14          1           0        0.673997    3.352642   -0.878879
     15          7           0        2.452080   -1.218780    0.000027
     16          8           0        2.482214    1.032937    0.000063
     17          6           0        3.188468   -0.150714    0.000022
     18          6           0        5.294869    1.176418   -0.000175
     19          6           0        6.685277    1.233242   -0.000245
     20          1           0        4.709550    2.087059   -0.000214
     21          6           0        7.436255    0.058289   -0.000188
     22          1           0        7.183067    2.196178   -0.000345
     23          6           0        6.790192   -1.179780   -0.000058
     24          1           0        8.519319    0.105808   -0.000245
     25          6           0        5.402474   -1.245593    0.000014
     26          1           0        7.371226   -2.094932   -0.000009
     27          1           0        4.889736   -2.199283    0.000118
     28          6           0        4.643614   -0.065217   -0.000046
     29          7           0       -2.452080    1.218780    0.000038
     30          8           0       -2.482214   -1.032937    0.000079
     31          6           0       -3.188468    0.150714    0.000016
     32          6           0       -5.294869   -1.176418   -0.000122
     33          6           0       -6.685278   -1.233242   -0.000191
     34          1           0       -4.709550   -2.087059   -0.000122
     35          6           0       -7.436255   -0.058289   -0.000188
     36          1           0       -7.183067   -2.196178   -0.000248
     37          6           0       -6.790192    1.179780   -0.000112
     38          1           0       -8.519319   -0.105808   -0.000242
     39          6           0       -5.402474    1.245593   -0.000043
     40          1           0       -7.371225    2.094933   -0.000107
     41          1           0       -4.889736    2.199283    0.000018
     42          6           0       -4.643614    0.065217   -0.000050
 ---------------------------------------------------------------------

 SCF Done:  E(RB3LYP) =  -1108.28068133     a.u. after    7 cycles
 SCF Done:  E(RB3LYP) =  -1108.28068950     A.U. after    9 cycles

 The electronic state is 1-A.
 Alpha  occ. eigenvalues --  -19.20011 -19.20010 -14.31815 -14.31814 -10.27742
 Alpha  occ. eigenvalues --  -10.27742 -10.23770 -10.23769 -10.21338 -10.21337
 Alpha  occ. eigenvalues --  -10.20421 -10.20421 -10.19831 -10.19830 -10.19038
 Alpha  occ. eigenvalues --  -10.19038 -10.18934 -10.18934 -10.18852 -10.18852
 Alpha  occ. eigenvalues --  -10.18789 -10.18789 -10.18726 -10.18726 -10.17311
 Alpha  occ. eigenvalues --  -10.17311  -1.13606  -1.13508  -0.93831  -0.93769
 Alpha  occ. eigenvalues --   -0.88383  -0.87625  -0.86316  -0.80239  -0.79729
 Alpha  occ. eigenvalues --   -0.78178  -0.76271  -0.76236  -0.73421  -0.73200
 Alpha  occ. eigenvalues --   -0.67865  -0.67788  -0.64763  -0.63518  -0.62456
 Alpha  occ. eigenvalues --   -0.61138  -0.59697  -0.58495  -0.58137  -0.55722
 Alpha  occ. eigenvalues --   -0.55216  -0.53415  -0.50703  -0.49443  -0.48421
 Alpha  occ. eigenvalues --   -0.48069  -0.47516  -0.46873  -0.46702  -0.46086
 Alpha  occ. eigenvalues --   -0.44832  -0.43875  -0.43772  -0.43599  -0.43536
 Alpha  occ. eigenvalues --   -0.42514  -0.42413  -0.42304  -0.41230  -0.39019
 Alpha  occ. eigenvalues --   -0.38801  -0.38664  -0.38266  -0.37169  -0.36732
 Alpha  occ. eigenvalues --   -0.36637  -0.35944  -0.35707  -0.35012  -0.34534
 Alpha  occ. eigenvalues --   -0.32902  -0.30472  -0.29791  -0.29046  -0.27014
 Alpha  occ. eigenvalues --   -0.27013  -0.26295  -0.23557  -0.21600
 Alpha virt. eigenvalues --   -0.07579  -0.05119  -0.02576  -0.02508  -0.01199
 Alpha virt. eigenvalues --   -0.00756  -0.00722  -0.00009   0.00189   0.01055
 Alpha virt. eigenvalues --    0.01238   0.01596   0.01852   0.02887   0.02967

 Mulliken charges:
               1
     1  C   -0.577347
     2  C   -0.144214
     3  C    0.349405
     4  C   -0.577346
     5  C   -0.144209
     6  C    0.349401
     7  C   -0.472006
     8  C   -0.472005
     9  H    0.187805
    10  H    0.166040
    11  H    0.165802
    12  H    0.187805
    13  H    0.166107
    14  H    0.165735
    15  N    0.095249
    16  O   -0.068746
    17  C    0.493698
    18  C   -0.425402
    19  C   -0.286364
    20  H    0.167626
    21  C   -0.346041
    22  H    0.182061
    23  C   -0.219935
    24  H    0.151462
    25  C   -0.459054
    26  H    0.185361
    27  H    0.177456
    28  C    0.677145
    29  N    0.095249
    30  O   -0.068746
    31  C    0.493697
    32  C   -0.425403
    33  C   -0.286363
    34  H    0.167626
    35  C   -0.346042
    36  H    0.182061
    37  C   -0.219935
    38  H    0.151462
    39  C   -0.459056
    40  H    0.185361
    41  H    0.177456
    42  C    0.677144
 Sum of Mulliken charges =   0.00000

 Dipole moment (field-independent basis, Debye):
    X=              0.0000    Y=             -0.0000    Z=              0.0004  Tot=              0.0004
 Quadrupole moment (field-independent basis, Debye-Ang):
   XX=           -117.5234   YY=           -140.2436   ZZ=           -156.6690
   XY=              4.8333   XZ=              0.0001   YZ=             -0.0001

  Exact polarizability:     587.857       9.138     275.890       0.000       0.001     139.263
 Approx polarizability:     752.679      25.957     491.135       0.001       0.001     227.268

                      1                      2                      3
                      A                      A                      A
 Frequencies --     12.7630                16.6069                26.2048
 Red. masses --      1.0135                 1.3153                 2.6166
 Frc consts  --      0.0001                 0.0002                 0.0011
 IR Inten    --      0.0000                 0.0206                 0.7142

                      4                      5                      6
                      A                      A                      A
 Frequencies --     33.6640                40.5581                58.8989
 Red. masses --      3.6525                 3.7366                 5.4420
 Frc consts  --      0.0024                 0.0036                 0.0111
 IR Inten    --      0.0030                 0.0000                 0.4292

                      7                      8                      9
                      A                      A                      A
 Frequencies --     65.3774               101.6013               113.7396
 Red. masses --      7.0280                 4.6428                 3.2608
 Frc consts  --      0.0177                 0.0282                 0.0249
 IR Inten    --      0.0000                 0.0000                 2.8667

                     10                     11                     12
                      A                      A                      A
 Frequencies --    143.8490               203.6881               204.4161
 Red. masses --      4.7812                 6.9219                 5.7481
 Frc consts  --      0.0583                 0.1692                 0.1415
 IR Inten    --      0.0300                 0.0000                 0.0000

                     13                     14                     15
                      A                      A                      A
 Frequencies --    208.5648               217.6457               219.5896
 Red. masses --     14.0309                 3.1799                 4.7969
 Frc consts  --      0.3596                 0.0887                 0.1363
 IR Inten    --      1.5403                 0.0000                 0.0000

                     16                     17                     18
                      A                      A                      A
 Frequencies --    225.5767               254.8778               294.3353
 Red. masses --      2.8350                 5.2949                 6.3580
 Frc consts  --      0.0850                 0.2027                 0.3245
 IR Inten    --      2.5446                 0.7467                 0.1248

                     19                     20                     21
                      A                      A                      A
 Frequencies --    352.5723               380.7074               410.5135
 Red. masses --      6.3660                 7.3118                 3.0018
 Frc consts  --      0.4662                 0.6244                 0.2980
 IR Inten    --      0.3648                 0.0000                 0.0000

                     22                     23                     24
                      A                      A                      A
 Frequencies --    410.6132               415.9056               422.1101
 Red. masses --      2.9044                 5.5115                 5.8522
 Frc consts  --      0.2885                 0.5617                 0.6144
 IR Inten    --      0.0001                 0.0000                 0.0000

                     25                     26                     27
                      A                      A                      A
 Frequencies --    462.4047               489.9924               502.6523
 Red. masses --      5.7089                 3.7328                 4.0169
 Frc consts  --      0.7192                 0.5280                 0.5980
 IR Inten    --      0.0000                 6.7649                 0.0001

                     28                     29                     30
                      A                      A                      A
 Frequencies --    504.1635               570.9036               576.7282
 Red. masses --      7.3533                 9.2718                 8.3373
 Frc consts  --      1.1012                 1.7805                 1.6339
 IR Inten    --      6.7455                 0.0000                 0.0000

                     31                     32                     33
                      A                      A                      A
 Frequencies --    581.6113               631.8505               631.8585
 Red. masses --      4.5726                 6.4808                 6.4472
 Frc consts  --      0.9113                 1.5244                 1.5166
 IR Inten    --      0.0016                 0.3792                 0.0000

                     34                     35                     36
                      A                      A                      A
 Frequencies --    685.2236               696.6152               698.9298
 Red. masses --      7.1018                 6.3456                 2.7205
 Frc consts  --      1.9647                 1.8143                 0.7830
 IR Inten    --      4.7434                17.3096                27.5840

                     37                     38                     39
                      A                      A                      A
 Frequencies --    700.1580               706.7771               712.2060
 Red. masses --      2.2785                 2.9940                 2.9829
 Frc consts  --      0.6581                 0.8812                 0.8915
 IR Inten    --      0.0000                88.6473                 0.0000

                     40                     41                     42
                      A                      A                      A
 Frequencies --    732.1155               732.2620               743.7011
 Red. masses --      6.8907                 5.8472                 7.8965
 Frc consts  --      2.1761                 1.8473                 2.5733
 IR Inten    --      0.0006                38.6413                 0.0000

                     43                     44                     45
                      A                      A                      A
 Frequencies --    767.5329               788.1472               788.3389
 Red. masses --      3.7104                 2.3328                 2.3550
 Frc consts  --      1.2878                 0.8538                 0.8623
 IR Inten    --      0.0000                 0.0000                31.3413

                     46                     47                     48
                      A                      A                      A
 Frequencies --    858.6625               858.6727               899.2226
 Red. masses --      1.2489                 1.2489                 2.4777
 Frc consts  --      0.5425                 0.5425                 1.1804
 IR Inten    --      0.0122                 0.0000                34.0569

                     49                     50                     51
                      A                      A                      A
 Frequencies --    935.3922               942.9633               943.8101
 Red. masses --     11.6123                12.1602                 1.4121
 Frc consts  --      5.9862                 6.3706                 0.7411
 IR Inten    --     21.0961                 0.0000                 0.0000

                     52                     53                     54
                      A                      A                      A
 Frequencies --    943.9070               992.5612               992.5856
 Red. masses --      1.4121                 1.3647                 1.3656
 Frc consts  --      0.7412                 0.7922                 0.7927
 IR Inten    --      4.7806                 0.0165                 0.0000

                     55                     56                     57
                      A                      A                      A
 Frequencies --   1000.8739              1003.1918              1003.6768
 Red. masses --      8.4661                 1.2857                 1.2878
 Frc consts  --      4.9968                 0.7624                 0.7644
 IR Inten    --     33.8422                 0.0719                 0.0000

                     58                     59                     60
                      A                      A                      A
 Frequencies --   1014.6606              1014.6614              1043.1021
 Red. masses --      6.2565                 6.1798                 3.3024
 Frc consts  --      3.7951                 3.7486                 2.1171
 IR Inten    --      0.0001                 0.0720                 0.0000

                     61                     62                     63
                      A                      A                      A
 Frequencies --   1043.6956              1053.0710              1057.5872
 Red. masses --      3.0772                 1.4324                 1.4672
 Frc consts  --      1.9749                 0.9359                 0.9669
 IR Inten    --     42.5899                 0.0006                 0.2520

                     64                     65                     66
                      A                      A                      A
 Frequencies --   1067.8250              1076.1421              1087.2941
 Red. masses --      2.3712                 2.5979                 2.2334
 Frc consts  --      1.5930                 1.7726                 1.5556
 IR Inten    --      0.0000                52.6056                 0.0000

                     67                     68                     69
                      A                      A                      A
 Frequencies --   1104.4111              1109.8626              1116.2971
 Red. masses --      2.1514                 1.7092                 2.1345
 Frc consts  --      1.5461                 1.2405                 1.5672
 IR Inten    --     82.4907                 0.0000                81.2512

                     70                     71                     72
                      A                      A                      A
 Frequencies --   1141.6165              1176.0055              1192.5114
 Red. masses --      5.2418                 6.9005                 1.1252
 Frc consts  --      4.0250                 5.6228                 0.9427
 IR Inten    --      0.0000                 0.0000                 0.0643

                     73                     74                     75
                      A                      A                      A
 Frequencies --   1192.7606              1210.9919              1211.1149
 Red. masses --      1.1330                 1.1412                 1.1461
 Frc consts  --      0.9497                 0.9860                 0.9905
 IR Inten    --      0.0000                12.9891                 0.0000

                     76                     77                     78
                      A                      A                      A
 Frequencies --   1284.1115              1292.0905              1318.2058
 Red. masses --      5.4699                 6.5208                 3.8861
 Frc consts  --      5.3142                 6.4141                 3.9786
 IR Inten    --     48.6104                 0.0000                 6.1134

                     79                     80                     81
                      A                      A                      A
 Frequencies --   1328.2547              1344.6159              1348.0688
 Red. masses --      4.6835                 6.3054                 6.4753
 Frc consts  --      4.8684                 6.7168                 6.9333
 IR Inten    --      0.0000                 0.0000                 3.1489

                     82                     83                     84
                      A                      A                      A
 Frequencies --   1357.0323              1358.9029              1361.1746
 Red. masses --      2.3031                 1.5443                 2.8744
 Frc consts  --      2.4989                 1.6801                 3.1378
 IR Inten    --      7.4703                 0.0000                43.9163

                     85                     86                     87
                      A                      A                      A
 Frequencies --   1405.2588              1416.2822              1417.3085
 Red. masses --      5.6090                 1.2422                 1.3349
 Frc consts  --      6.5260                 1.4680                 1.5798
 IR Inten    --     13.9334                 0.0000                 6.2039

                     88                     89                     90
                      A                      A                      A
 Frequencies --   1477.4758              1478.3472              1481.8703
 Red. masses --      2.1800                 2.1801                 1.1230
 Frc consts  --      2.8038                 2.8072                 1.4530
 IR Inten    --      0.0000                37.1487                 0.0002

                     91                     92                     93
                      A                      A                      A
 Frequencies --   1487.8794              1487.9973              1497.1617
 Red. masses --      1.0426                 1.0429                 1.1496
 Frc consts  --      1.3599                 1.3606                 1.5182
 IR Inten    --      0.0002                15.4049                 9.5061

                     94                     95                     96
                      A                      A                      A
 Frequencies --   1519.2327              1520.2363              1565.9898
 Red. masses --      2.2937                 2.2569                10.7032
 Frc consts  --      3.1191                 3.0732                15.4648
 IR Inten    --      0.0000                82.0234                 7.0456

                     97                     98                     99
                      A                      A                      A
 Frequencies --   1580.4377              1600.7872              1616.7232
 Red. masses --      7.2266                 7.2015                 5.6594
 Frc consts  --     10.6350                10.8728                 8.7155
 IR Inten    --      0.0000               123.5513                 0.0000

                    100                    101                    102
                      A                      A                      A
 Frequencies --   1626.2624              1639.6054              1645.6645
 Red. masses --      6.7729                 5.9693                 5.5496
 Frc consts  --     10.5537                 9.4548                 8.8552
 IR Inten    --     45.3761                 0.0000                 2.6418

                    103                    104                    105
                      A                      A                      A
 Frequencies --   1652.4319              1674.1019              3025.9724
 Red. masses --      7.2341                11.6424                 1.0379
 Frc consts  --     11.6381                19.2246                 5.5994
 IR Inten    --      0.0000                 0.0000                53.0470

                    106                    107                    108
                      A                      A                      A
 Frequencies --   3026.0870              3073.2728              3073.3399
 Red. masses --      1.0379                 1.1005                 1.1005
 Frc consts  --      5.5998                 6.1244                 6.1243
 IR Inten    --      0.0036                 0.0011                26.9167

                    109                    110                    111
                      A                      A                      A
 Frequencies --   3125.5807              3125.6113              3163.5199
 Red. masses --      1.0998                 1.0998                 1.0860
 Frc consts  --      6.3300                 6.3302                 6.4036
 IR Inten    --      0.0883                12.0722                 1.6758

                    112                    113                    114
                      A                      A                      A
 Frequencies --   3163.5335              3174.4766              3174.4790
 Red. masses --      1.0860                 1.0896                 1.0896
 Frc consts  --      6.4037                 6.4694                 6.4694
 IR Inten    --      0.0003                 0.4329                20.4555

                    115                    116                    117
                      A                      A                      A
 Frequencies --   3185.9315              3185.9676              3199.3401
 Red. masses --      1.0941                 1.0941                 1.0934
 Frc consts  --      6.5430                 6.5430                 6.5939
 IR Inten    --     45.6742                 0.0005                11.0858

                    118                    119                    120
                      A                      A                      A
 Frequencies --   3199.3434              3201.2932              3201.3132
 Red. masses --      1.0934                 1.0954                 1.0954
 Frc consts  --      6.5939                 6.6142                 6.6145
 IR Inten    --      0.0024                11.8846                 0.0009

 - Thermochemistry -
 -------------------
 Temperature   298.150 Kelvin.  Pressure   1.00000 Atm.
 Atom     1 has atomic number  6 and mass  12.00000

 Molecular mass:   340.12118 amu.
 Principal axes and moments of inertia in atomic units:
                           1         2         3
     Eigenvalues --  2205.23138********************
           X            1.00000   0.00063   0.00000
           Y           -0.00063   1.00000   0.00000
           Z           -0.00000  -0.00000   1.00000
 This molecule is an asymmetric top.
 Rotational symmetry number  1.
 Warning -- assumption of classical behavior for rotation
           may cause significant error
 Rotational temperatures (Kelvin)      0.03928     0.00371     0.00340
 Rotational constants (GHZ):           0.81839     0.07739     0.07077
 Zero-point vibrational energy     854793.2 (Joules/Mol)
                                  204.30047 (Kcal/Mol)
 Warning -- explicit consideration of  31 degrees of freedom as
           vibrations may cause significant error
 Vibrational temperatures:     18.36    23.89    37.70    48.44    58.35
          (Kelvin)             84.74    94.06   146.18   163.65   206.97
                              293.06   294.11   300.08   313.14   315.94
                              324.55   366.71   423.48   507.27   547.75
                              590.64   590.78   598.40   607.32   665.30
                              704.99   723.20   725.38   821.40   829.78
                              836.81   909.09   909.10   985.88  1002.27
                             1005.60  1007.37  1016.89  1024.71  1053.35
                             1053.56  1070.02  1104.31  1133.97  1134.24
                             1235.42  1235.44  1293.78  1345.82  1356.71
                             1357.93  1358.07  1428.07  1428.11  1440.03
                             1443.37  1444.07  1459.87  1459.87  1500.79
                             1501.65  1515.13  1521.63  1536.36  1548.33
                             1564.37  1589.00  1596.84  1606.10  1642.53
                             1692.01  1715.76  1716.12  1742.35  1742.52
                             1847.55  1859.03  1896.60  1911.06  1934.60
                             1939.57  1952.47  1955.16  1958.43  2021.85
                             2037.71  2039.19  2125.76  2127.01  2132.08
                             2140.73  2140.90  2154.08  2185.84  2187.28
                             2253.11  2273.90  2303.18  2326.10  2339.83
                             2359.03  2367.74  2377.48  2408.66  4353.70
                             4353.86  4421.75  4421.85  4497.01  4497.06
                             4551.60  4551.62  4567.36  4567.37  4583.84
                             4583.90  4603.14  4603.14  4605.95  4605.98

 Zero-point correction=                           0.325574 (Hartree/Particle)
 Thermal correction to Energy=                    0.346708
 Thermal correction to Enthalpy=                  0.347652
 Thermal correction to Gibbs Free Energy=         0.271210
 Sum of electronic and zero-point Energies=          -1107.955116
 Sum of electronic and thermal Energies=             -1107.933981
 Sum of electronic and thermal Enthalpies=           -1107.933037
 Sum of electronic and thermal Free Energies=        -1108.009479

                     E (Thermal)             CV                S
                      KCal/Mol        Cal/Mol-Kelvin    Cal/Mol-Kelvin
 Total                  217.563             81.274            160.886
 Electronic               0.000              0.000              0.000
 Translational            0.889              2.981             43.367
 Rotational               0.889              2.981             35.526
 Vibrational            215.785             75.313             81.992
 Vibration     1          0.593              1.987              7.526
 Vibration     2          0.593              1.986              7.003
 Vibration     3          0.593              1.985              6.098
 Vibration     4          0.594              1.983              5.601
 Vibration     5          0.594              1.981              5.232
 Vibration     6          0.596              1.974              4.494
 Vibration     7          0.597              1.971              4.288
 Vibration     8          0.604              1.948              3.423
 Vibration     9          0.607              1.938              3.204
 Vibration    10          0.616              1.909              2.752
 Vibration    11          0.639              1.835              2.100
 Vibration    12          0.640              1.834              2.093
 Vibration    13          0.642              1.828              2.056
 Vibration    14          0.646              1.814              1.979
 Vibration    15          0.647              1.811              1.962
 Vibration    16          0.650              1.802              1.914
 Vibration    17          0.665              1.755              1.697
 Vibration    18          0.689              1.684              1.449
 Vibration    19          0.729              1.570              1.155
 Vibration    20          0.750              1.511              1.036
 Vibration    21          0.775              1.447              0.925
 Vibration    22          0.775              1.447              0.924
 Vibration    23          0.779              1.436              0.906
 Vibration    24          0.784              1.422              0.885
 Vibration    25          0.820              1.333              0.759
 Vibration    26          0.846              1.272              0.684
 Vibration    27          0.858              1.244              0.652
 Vibration    28          0.859              1.241              0.648
 Vibration    29          0.927              1.094              0.503
 Vibration    30          0.933              1.082              0.491
 Vibration    31          0.938              1.071              0.482

 Normal termination of Gaussian 16 at Thu Jul 30 20:40:12 2020.
