 Gaussian 16, Revision C.01,
 Gaussian 16:  ES64L-G16RevC.01  3-Jul-2019

 ----------------------------------------------------------------------
 #P B3LYP/6-311++G(d,p) EmpiricalDispersion=GD3 freq(noraman) SCF=YQC N
 oSymm
 ----------------------------------------------------------------------

 --------------------------------------
 Restart from Pyrene_Aldehyde_Imine.log
 --------------------------------------
 Symbolic Z-matrix:
 Charge =  0 Multiplicity = 1

                          Input orientation:
 ---------------------------------------------------------------------
 Center     Atomic      Atomic             Coordinates (Angstroms)
 Number     Number       Type             X           Y           Z
 ---------------------------------------------------------------------
      1          6           0       -0.009719    3.526706   -0.030379
      2          6           0       -1.216921    2.818553   -0.016987
      3          6           0       -1.239592    1.419663   -0.004644
      4          6           0       -0.002776    0.710747   -0.005697
      5          6           0        1.230237    1.433069   -0.019096
      6          6           0        1.204909    2.828697   -0.031378
      7          1           0       -2.156962    3.362243   -0.015833
      8          1           0        2.129703    3.393363   -0.042045
      9          6           0        0.002932   -0.710759    0.005697
     10          6           0       -1.230080   -1.433080    0.019096
     11          6           0       -1.204752   -2.828709    0.031378
     12          6           0        0.009875   -3.526717    0.030379
     13          6           0        1.217077   -2.818564    0.016987
     14          6           0        1.239749   -1.419674    0.004644
     15          1           0       -2.129547   -3.393375    0.042044
     16          1           0        2.157119   -3.362254    0.015833
     17          6           0        2.461399    0.689565   -0.020415
     18          6           0        2.465646   -0.668744   -0.009122
     19          1           0        3.394761    1.242006   -0.031140
     20          1           0        3.403738   -1.213754   -0.010521
     21          6           0       -2.465490    0.668732    0.009122
     22          6           0       -2.461243   -0.689576    0.020414
     23          1           0       -3.403582    1.213743    0.010521
     24          1           0       -3.394605   -1.242017    0.031140
     25          6           0        0.839394    9.915015   -0.198018
     26          6           0        1.734553    9.263010    0.652219
     27          6           0       -0.005638    9.163482   -1.013453
     28          6           0        0.026322    7.771869   -0.969305
     29          6           0        0.913278    7.112228   -0.103309
     30          6           0        1.785410    7.873980    0.688019
     31          6           0       -0.045829    4.994667   -0.043838
     32          7           0        1.009199    5.712309   -0.029252
     33          1           0        2.403105    9.840247    1.281197
     34          1           0       -0.686635    9.661658   -1.694760
     35          1           0       -0.609372    7.191903   -1.628728
     36          1           0        2.486100    7.356234    1.332391
     37          1           0       -1.048213    5.445320   -0.052179
     38          1           0        0.812544   10.997885   -0.235773
     39          6           0       -0.839237   -9.915027    0.198019
     40          6           0       -1.734395   -9.263021   -0.652220
     41          6           0        0.005792   -9.163492    1.013455
     42          6           0       -0.026168   -7.771880    0.969307
     43          6           0       -0.913122   -7.112239    0.103309
     44          6           0       -1.785252   -7.873991   -0.688021
     45          6           0        0.045985   -4.994678    0.043838
     46          7           0       -1.009044   -5.712320    0.029251
     47          1           0       -2.402945   -9.840259   -1.281199
     48          1           0        0.686789   -9.661669    1.694764
     49          1           0        0.609524   -7.191914    1.628731
     50          1           0       -2.485941   -7.356246   -1.332395
     51          1           0        1.048368   -5.445330    0.052179
     52          1           0       -0.812387  -10.997896    0.235775
 ---------------------------------------------------------------------

 SCF Done:  E(RB3LYP) =  -1265.12565899     a.u. after    7 cycles
 SCF Done:  E(RB3LYP) =  -1265.12566546     A.U. after    9 cycles

 Alpha  occ. eigenvalues --  -14.32130 -14.32130 -10.22963 -10.22963 -10.21382
 Alpha  occ. eigenvalues --  -10.21382 -10.20146 -10.20143 -10.20091 -10.20060
 Alpha  occ. eigenvalues --  -10.20027 -10.20017 -10.19879 -10.19879 -10.19398
 Alpha  occ. eigenvalues --  -10.19398 -10.19156 -10.19156 -10.19053 -10.19053
 Alpha  occ. eigenvalues --  -10.18778 -10.18778 -10.18161 -10.18161 -10.18060
 Alpha  occ. eigenvalues --  -10.18060 -10.18024 -10.18024 -10.17792 -10.17792
 Alpha  occ. eigenvalues --  -10.17678 -10.17678  -0.94932  -0.94920  -0.91106
 Alpha  occ. eigenvalues --   -0.87386  -0.85755  -0.85370  -0.84757  -0.82253
 Alpha  occ. eigenvalues --   -0.78445  -0.77649  -0.76689  -0.75544  -0.75475
 Alpha  occ. eigenvalues --   -0.74996  -0.73816  -0.72761  -0.68356  -0.65099
 Alpha  occ. eigenvalues --   -0.64880  -0.63985  -0.62880  -0.62339  -0.61484
 Alpha  occ. eigenvalues --   -0.61007  -0.59082  -0.57143  -0.54577  -0.54273
 Alpha  occ. eigenvalues --   -0.53819  -0.53626  -0.52575  -0.51083  -0.50568
 Alpha  occ. eigenvalues --   -0.49118  -0.48544  -0.48156  -0.47345  -0.46212
 Alpha  occ. eigenvalues --   -0.45710  -0.45139  -0.44584  -0.44531  -0.43988
 Alpha  occ. eigenvalues --   -0.43498  -0.43199  -0.42926  -0.42916  -0.42070
 Alpha  occ. eigenvalues --   -0.41334  -0.40585  -0.40129  -0.40048  -0.38398
 Alpha  occ. eigenvalues --   -0.38174  -0.38087  -0.37017  -0.36942  -0.36316
 Alpha  occ. eigenvalues --   -0.35986  -0.35888  -0.35235  -0.35219  -0.33886
 Alpha  occ. eigenvalues --   -0.33644  -0.30883  -0.29324  -0.29165  -0.28195
 Alpha  occ. eigenvalues --   -0.27365  -0.26259  -0.26230  -0.25465  -0.23610
 Alpha  occ. eigenvalues --   -0.22631  -0.21771
 Alpha virt. eigenvalues --   -0.08848  -0.07547  -0.05867  -0.02859  -0.01947
 Alpha virt. eigenvalues --   -0.01943  -0.01342  -0.01147  -0.00998  -0.00703
 Alpha virt. eigenvalues --   -0.00222  -0.00218   0.00395   0.00627   0.00848

 Mulliken charges:
               1
     1  C    0.956370
     2  C   -0.645489
     3  C   -0.046831
     4  C   -0.344537
     5  C    0.279674
     6  C   -0.413156
     7  H    0.096454
     8  H    0.143171
     9  C   -0.344536
    10  C    0.279675
    11  C   -0.413155
    12  C    0.956369
    13  C   -0.645487
    14  C   -0.046831
    15  H    0.143172
    16  H    0.096455
    17  C   -0.209755
    18  C   -0.266079
    19  H    0.157399
    20  H    0.147719
    21  C   -0.266079
    22  C   -0.209755
    23  H    0.147719
    24  H    0.157399
    25  C   -0.354019
    26  C   -0.167184
    27  C   -0.123762
    28  C   -0.026925
    29  C   -0.437399
    30  C    0.200775
    31  C   -0.117278
    32  N    0.247198
    33  H    0.175637
    34  H    0.177838
    35  H    0.149902
    36  H    0.167686
    37  H    0.104436
    38  H    0.148152
    39  C   -0.354019
    40  C   -0.167185
    41  C   -0.123760
    42  C   -0.026925
    43  C   -0.437403
    44  C    0.200777
    45  C   -0.117278
    46  N    0.247199
    47  H    0.175637
    48  H    0.177838
    49  H    0.149902
    50  H    0.167686
    51  H    0.104437
    52  H    0.148152
 Sum of Mulliken charges =  -0.00000

 Dipole moment (field-independent basis, Debye):
    X=              0.0000    Y=              0.0000    Z=              0.0000  Tot=              0.0000
 Quadrupole moment (field-independent basis, Debye-Ang):
   XX=           -173.4055   YY=           -169.7599   ZZ=           -190.5229
   XY=            -12.8695   XZ=              7.6297   YZ=             -0.9586

  Exact polarizability:     339.922      57.089     894.737      32.449      -9.841     207.001
 Approx polarizability:     636.961      64.080    1148.359      67.236      -9.598     352.326

                      1                      2                      3
                      A                      A                      A
 Frequencies --     12.9934                27.2982                30.0282
 Red. masses --      6.5561                 4.2971                 4.9050
 Frc consts  --      0.0007                 0.0019                 0.0026
 IR Inten    --      0.0020                 0.9036                 0.5251

                      4                      5                      6
                      A                      A                      A
 Frequencies --     32.5406                37.5878                53.8670
 Red. masses --      4.0086                 6.0231                 5.5565
 Frc consts  --      0.0025                 0.0050                 0.0095
 IR Inten    --      0.0000                 0.0000                 0.0000

                      7                      8                      9
                      A                      A                      A
 Frequencies --     75.7454               110.3128               126.2126
 Red. masses --      6.0340                 5.9926                 4.8928
 Frc consts  --      0.0204                 0.0430                 0.0459
 IR Inten    --      0.8597                 0.0000                 3.6816

                     10                     11                     12
                      A                      A                      A
 Frequencies --    130.8322               150.8260               165.5092
 Red. masses --      6.7259                 4.4608                 4.7900
 Frc consts  --      0.0678                 0.0598                 0.0773
 IR Inten    --      0.0000                 2.8004                 1.3837

                     13                     14                     15
                      A                      A                      A
 Frequencies --    207.1192               209.8195               211.4594
 Red. masses --      3.8005                 3.3184                 5.0807
 Frc consts  --      0.0961                 0.0861                 0.1339
 IR Inten    --     17.6771                 0.0000                 0.0000

                     16                     17                     18
                      A                      A                      A
 Frequencies --    231.0644               258.7570               268.3734
 Red. masses --      6.9327                 3.6378                 4.1205
 Frc consts  --      0.2181                 0.1435                 0.1749
 IR Inten    --      1.0460                 0.0000                13.7989

                     19                     20                     21
                      A                      A                      A
 Frequencies --    303.6599               323.4155               393.5648
 Red. masses --      5.2290                 4.0946                 4.0927
 Frc consts  --      0.2841                 0.2523                 0.3735
 IR Inten    --      0.0000                 1.2199                 0.0000

                     22                     23                     24
                      A                      A                      A
 Frequencies --    403.2188               405.1683               420.5561
 Red. masses --      3.6468                 4.6714                 3.0051
 Frc consts  --      0.3493                 0.4518                 0.3132
 IR Inten    --      1.0642                 3.8221                 0.0000

                     25                     26                     27
                      A                      A                      A
 Frequencies --    423.0507               431.3727               462.7044
 Red. masses --      3.1412                 7.2139                 5.9948
 Frc consts  --      0.3312                 0.7909                 0.7562
 IR Inten    --      9.9306                 0.0000                 0.0000

                     28                     29                     30
                      A                      A                      A
 Frequencies --    479.4394               490.8799               508.6022
 Red. masses --      7.0313                 4.4157                 4.1236
 Frc consts  --      0.9523                 0.6269                 0.6285
 IR Inten    --      0.0000                 5.2699                 0.0000

                     31                     32                     33
                      A                      A                      A
 Frequencies --    512.1627               520.7099               533.1079
 Red. masses --      5.1700                 3.6274                 3.0437
 Frc consts  --      0.7990                 0.5795                 0.5097
 IR Inten    --     16.5699                 0.0000                 0.0000

                     34                     35                     36
                      A                      A                      A
 Frequencies --    537.5687               553.4684               556.2287
 Red. masses --      3.9375                 7.0591                 3.9866
 Frc consts  --      0.6704                 1.2740                 0.7267
 IR Inten    --     22.6471                20.5819                 0.0000

                     37                     38                     39
                      A                      A                      A
 Frequencies --    572.6927               590.5582               602.8938
 Red. masses --      7.0519                 5.9803                 3.6805
 Frc consts  --      1.3627                 1.2289                 0.7882
 IR Inten    --      0.0000                 2.9705                 6.2776

                     40                     41                     42
                      A                      A                      A
 Frequencies --    629.9692               631.8331               635.3600
 Red. masses --      6.3031                 6.4510                 6.3331
 Frc consts  --      1.4738                 1.5173                 1.5063
 IR Inten    --      0.0000                 0.1154                 0.0000

                     43                     44                     45
                      A                      A                      A
 Frequencies --    644.1045               681.2924               702.7421
 Red. masses --      3.4873                 4.3527                 2.8305
 Frc consts  --      0.8524                 1.1904                 0.8236
 IR Inten    --      0.0000                 0.1162                32.9039

                     46                     47                     48
                      A                      A                      A
 Frequencies --    705.2133               708.7041               715.9388
 Red. masses --      1.8195                 2.7248                 2.9000
 Frc consts  --      0.5331                 0.8063                 0.8758
 IR Inten    --      0.0000                46.2973                60.7598

                     49                     50                     51
                      A                      A                      A
 Frequencies --    749.2154               764.3548               776.9602
 Red. masses --      3.4382                 7.1040                 1.9632
 Frc consts  --      1.1371                 2.4454                 0.6982
 IR Inten    --      0.0000                 0.0000                81.1294

                     52                     53                     54
                      A                      A                      A
 Frequencies --    783.4941               797.6730               813.4460
 Red. masses --      2.3444                 5.4774                 1.4816
 Frc consts  --      0.8479                 2.0534                 0.5776
 IR Inten    --      0.0000                 0.0000                14.1805

                     55                     56                     57
                      A                      A                      A
 Frequencies --    813.9716               817.6435               843.3435
 Red. masses --      1.3689                 4.8367                 1.2515
 Frc consts  --      0.5344                 1.9052                 0.5244
 IR Inten    --      0.0000                 4.8327                 3.6808

                     58                     59                     60
                      A                      A                      A
 Frequencies --    843.3553               867.2476               875.1649
 Red. masses --      1.2497                 5.1025                 5.1111
 Frc consts  --      0.5237                 2.2611                 2.3065
 IR Inten    --      0.0017                54.9951                 0.0000

                     61                     62                     63
                      A                      A                      A
 Frequencies --    893.8841               897.1327               919.7638
 Red. masses --      1.4495                 1.5055                 1.4699
 Frc consts  --      0.6824                 0.7139                 0.7326
 IR Inten    --      0.0000                38.4498                 3.6860

                     64                     65                     66
                      A                      A                      A
 Frequencies --    921.1688               925.5511               931.1577
 Red. masses --      1.5376                 1.4891                 1.4425
 Frc consts  --      0.7687                 0.7516                 0.7369
 IR Inten    --      0.0000                35.9264                 0.0000

                     67                     68                     69
                      A                      A                      A
 Frequencies --    979.5938               979.6036               985.3116
 Red. masses --      1.3642                 1.3638                 1.3070
 Frc consts  --      0.7713                 0.7711                 0.7476
 IR Inten    --      0.0057                 0.5565                 0.0494

                     70                     71                     72
                      A                      A                      A
 Frequencies --    987.9139               996.4075               996.7370
 Red. masses --      1.3080                 1.4508                 1.3006
 Frc consts  --      0.7521                 0.8487                 0.7613
 IR Inten    --      0.0000                 0.0000                 0.0329

                     73                     74                     75
                      A                      A                      A
 Frequencies --    998.7201              1002.4315              1002.9619
 Red. masses --      3.1747                 2.1162                 1.8798
 Frc consts  --      1.8657                 1.2529                 1.1141
 IR Inten    --      0.0000                25.1032                 0.0001

                     76                     77                     78
                      A                      A                      A
 Frequencies --   1004.0319              1012.4854              1014.4718
 Red. masses --      3.7384                 7.3444                 4.2214
 Frc consts  --      2.2204                 4.4359                 2.5597
 IR Inten    --      6.5098                16.2872                 2.7241

                     79                     80                     81
                      A                      A                      A
 Frequencies --   1015.4767              1025.5197              1046.1780
 Red. masses --      3.7880                 3.7339                 2.1102
 Frc consts  --      2.3015                 2.3137                 1.3608
 IR Inten    --      0.0000                25.2035                 0.0000

                     82                     83                     84
                      A                      A                      A
 Frequencies --   1046.2705              1105.9876              1106.0013
 Red. masses --      2.1071                 1.5371                 1.5363
 Frc consts  --      1.3590                 1.1078                 1.1073
 IR Inten    --     15.1383                 0.0029                13.9327

                     85                     86                     87
                      A                      A                      A
 Frequencies --   1140.0614              1157.4547              1178.5807
 Red. masses --      2.7361                 1.8733                 1.5931
 Frc consts  --      2.0952                 1.4787                 1.3038
 IR Inten    --      0.0000                 0.0000               165.3250

                     88                     89                     90
                      A                      A                      A
 Frequencies --   1187.5718              1188.5201              1191.4773
 Red. masses --      1.1690                 1.1334                 1.2550
 Frc consts  --      0.9714                 0.9433                 1.0497
 IR Inten    --      0.0000                 0.9583                 0.0000

                     91                     92                     93
                      A                      A                      A
 Frequencies --   1191.9494              1200.5799              1200.8900
 Red. masses --      1.4030                 1.1628                 1.1557
 Frc consts  --      1.1745                 0.9875                 0.9820
 IR Inten    --     42.7906                 0.5904                 0.0000

                     94                     95                     96
                      A                      A                      A
 Frequencies --   1231.9553              1240.2772              1240.9729
 Red. masses --      1.6587                 3.0913                 2.8685
 Frc consts  --      1.4833                 2.8017                 2.6027
 IR Inten    --      3.9208                 0.0000                55.7612

                     97                     98                     99
                      A                      A                      A
 Frequencies --   1266.2231              1310.3457              1314.0221
 Red. masses --      1.4295                 1.9299                 4.0788
 Frc consts  --      1.3504                 1.9524                 4.1494
 IR Inten    --      0.0000                 3.0890                 0.0000

                    100                    101                    102
                      A                      A                      A
 Frequencies --   1317.0329              1317.3291              1350.6302
 Red. masses --      3.4145                 3.4398                 2.5268
 Frc consts  --      3.4896                 3.5170                 2.7158
 IR Inten    --      0.9060                 0.0000                 6.5445

                    103                    104                    105
                      A                      A                      A
 Frequencies --   1351.1239              1351.5412              1356.6777
 Red. masses --      1.6416                 2.1307                 2.9035
 Frc consts  --      1.7657                 2.2932                 3.1486
 IR Inten    --      0.0000                22.9687                 0.0000

                    106                    107                    108
                      A                      A                      A
 Frequencies --   1388.2227              1395.0723              1405.9082
 Red. masses --      2.0865                 1.9014                 3.6212
 Frc consts  --      2.3691                 2.1803                 4.2172
 IR Inten    --      0.0000                47.6589                 0.0000

                    109                    110                    111
                      A                      A                      A
 Frequencies --   1428.5647              1436.2013              1443.4660
 Red. masses --      1.9590                 2.0155                 5.8194
 Frc consts  --      2.3555                 2.4494                 7.1440
 IR Inten    --      0.0000                13.7484                 0.0000

                    112                    113                    114
                      A                      A                      A
 Frequencies --   1470.3150              1477.9668              1478.3744
 Red. masses --      4.3815                 2.2447                 2.2415
 Frc consts  --      5.5808                 2.8889                 2.8864
 IR Inten    --      1.2014                 6.1594                 0.0000

                    115                    116                    117
                      A                      A                      A
 Frequencies --   1491.9536              1492.5678              1504.0145
 Red. masses --      6.1923                 2.6658                 3.5404
 Frc consts  --      8.1210                 3.4990                 4.7185
 IR Inten    --     21.1508                10.1609                 0.0000

                    118                    119                    120
                      A                      A                      A
 Frequencies --   1517.6890              1518.4991              1605.1861
 Red. masses --      2.2602                 2.2931                 4.6411
 Frc consts  --      3.0674                 3.1153                 7.0456
 IR Inten    --      0.0000                90.4022                 0.0000

                    121                    122                    123
                      A                      A                      A
 Frequencies --   1611.2363              1611.2608              1617.3248
 Red. masses --      5.3910                 5.3923                 7.1862
 Frc consts  --      8.2459                 8.2481                11.0749
 IR Inten    --     12.9488                 0.0131                 0.0000

                    124                    125                    126
                      A                      A                      A
 Frequencies --   1625.3109              1630.5050              1634.1723
 Red. masses --      5.8489                 5.6380                 6.0765
 Frc consts  --      9.1033                 8.8313                 9.5609
 IR Inten    --    225.5196                 0.0000                 9.2140

                    127                    128                    129
                      A                      A                      A
 Frequencies --   1643.5270              1663.4127              1688.1793
 Red. masses --      5.6847                 6.7951                 7.6551
 Frc consts  --      9.0472                11.0776                12.8541
 IR Inten    --      7.5636                 0.0000               421.6212

                    130                    131                    132
                      A                      A                      A
 Frequencies --   1690.6506              2998.5170              2998.6790
 Red. masses --      7.7976                 1.0855                 1.0856
 Frc consts  --     13.1317                 5.7504                 5.7513
 IR Inten    --      0.0002               105.8061                 0.1491

                    133                    134                    135
                      A                      A                      A
 Frequencies --   3153.5622              3153.6042              3158.6943
 Red. masses --      1.0898                 1.0897                 1.0853
 Frc consts  --      6.3856                 6.3851                 6.3801
 IR Inten    --     12.1870                 0.0854                11.4728

                    136                    137                    138
                      A                      A                      A
 Frequencies --   3158.7057              3158.9710              3158.9875
 Red. masses --      1.0853                 1.0868                 1.0870
 Frc consts  --      6.3801                 6.3900                 6.3908
 IR Inten    --      0.3336                 6.8376                 0.0235

                    139                    140                    141
                      A                      A                      A
 Frequencies --   3166.5460              3166.5471              3177.1643
 Red. masses --      1.0880                 1.0880                 1.0917
 Frc consts  --      6.4279                 6.4279                 6.4928
 IR Inten    --      4.0110                 3.9006                19.6500

                    142                    143                    144
                      A                      A                      A
 Frequencies --   3177.1684              3177.5350              3177.8135
 Red. masses --      1.0917                 1.0962                 1.0960
 Frc consts  --      6.4928                 6.5209                 6.5209
 IR Inten    --      7.9172                35.3243                 0.0004

                    145                    146                    147
                      A                      A                      A
 Frequencies --   3184.6711              3184.6725              3186.7141
 Red. masses --      1.0942                 1.0942                 1.0907
 Frc consts  --      6.5386                 6.5385                 6.5260
 IR Inten    --     33.2401                 6.9601                 4.4836

                    148                    149                    150
                      A                      A                      A
 Frequencies --   3186.8234              3191.5712              3191.5973
 Red. masses --      1.0907                 1.0976                 1.0976
 Frc consts  --      6.5263                 6.5870                 6.5871
 IR Inten    --      0.0053                38.5907                 0.0163

 - Thermochemistry -
 -------------------
 Temperature   298.150 Kelvin.  Pressure   1.00000 Atm.
 Atom     1 has atomic number  6 and mass  12.00000

 Molecular mass:   408.16265 amu.
 Principal axes and moments of inertia in atomic units:
                           1         2         3
     Eigenvalues --  2497.48231********************
           X            0.09805   0.98341  -0.15262
           Y            0.99505  -0.09444   0.03079
           Z           -0.01587   0.15489   0.98780
 This molecule is an asymmetric top.
 Rotational symmetry number  1.
 Warning -- assumption of classical behavior for rotation
           may cause significant error
 Rotational temperatures (Kelvin)      0.03468     0.00172     0.00166
 Rotational constants (GHZ):           0.72262     0.03593     0.03456
 Zero-point vibrational energy    1075589.4 (Joules/Mol)
                                  257.07203 (Kcal/Mol)
 Warning -- explicit consideration of  39 degrees of freedom as
           vibrations may cause significant error
 Vibrational temperatures:     18.69    39.28    43.20    46.82    54.08
          (Kelvin)             77.50   108.98   158.72   181.59   188.24
                              217.00   238.13   298.00   301.88   304.24
                              332.45   372.29   386.13   436.90   465.32
                              566.25   580.14   582.95   605.09   608.68
                              620.65   665.73   689.81   706.27   731.77
                              736.89   749.19   767.02   773.44   796.32
                              800.29   823.98   849.68   867.43   906.39
                              909.07   914.14   926.72   980.23  1011.09
                             1014.64  1019.67  1030.08  1077.95  1099.74
                             1117.87  1127.27  1147.67  1170.37  1171.12
                             1176.41  1213.38  1213.40  1247.78  1259.17
                             1286.10  1290.77  1323.34  1325.36  1331.66
                             1339.73  1409.42  1409.43  1417.64  1421.39
                             1433.61  1434.08  1436.94  1442.28  1443.04
                             1444.58  1456.74  1459.60  1461.04  1475.49
                             1505.22  1505.35  1591.27  1591.29  1640.29
                             1665.32  1695.71  1708.65  1710.02  1714.27
                             1714.95  1727.37  1727.81  1772.51  1784.48
                             1785.48  1821.81  1885.30  1890.58  1894.92
                             1895.34  1943.26  1943.97  1944.57  1951.96
                             1997.34  2007.20  2022.79  2055.39  2066.37
                             2076.83  2115.46  2126.46  2127.05  2146.59
                             2147.47  2163.94  2183.62  2184.78  2309.50
                             2318.21  2318.24  2326.97  2338.46  2345.93
                             2351.21  2364.67  2393.28  2428.91  2432.47
                             4314.20  4314.43  4537.27  4537.33  4544.66
                             4544.67  4545.05  4545.08  4555.95  4555.96
                             4571.23  4571.24  4571.76  4572.16  4582.03
                             4582.03  4584.97  4585.13  4591.96  4592.00

 Zero-point correction=                           0.409670 (Hartree/Particle)
 Thermal correction to Energy=                    0.433548
 Thermal correction to Enthalpy=                  0.434492
 Thermal correction to Gibbs Free Energy=         0.353509
 Sum of electronic and zero-point Energies=          -1264.715995
 Sum of electronic and thermal Energies=             -1264.692117
 Sum of electronic and thermal Enthalpies=           -1264.691173
 Sum of electronic and thermal Free Energies=        -1264.772157

                     E (Thermal)             CV                S
                      KCal/Mol        Cal/Mol-Kelvin    Cal/Mol-Kelvin
 Total                  272.056             97.799            170.444
 Electronic               0.000              0.000              0.000
 Translational            0.889              2.981             43.910
 Rotational               0.889              2.981             37.125
 Vibrational            270.278             91.837             89.409
 Vibration     1          0.593              1.987              7.491
 Vibration     2          0.593              1.984              6.017
 Vibration     3          0.594              1.984              5.828
 Vibration     4          0.594              1.983              5.668
 Vibration     5          0.594              1.982              5.382
 Vibration     6          0.596              1.976              4.670
 Vibration     7          0.599              1.965              3.998
 Vibration     8          0.606              1.941              3.263
 Vibration     9          0.611              1.927              3.003
 Vibration    10          0.612              1.922              2.934
 Vibration    11          0.618              1.902              2.662
 Vibration    12          0.624              1.885              2.486
 Vibration    13          0.641              1.830              2.069
 Vibration    14          0.642              1.826              2.045
 Vibration    15          0.643              1.823              2.031
 Vibration    16          0.653              1.794              1.871
 Vibration    17          0.668              1.748              1.670
 Vibration    18          0.673              1.731              1.607
 Vibration    19          0.695              1.667              1.397
 Vibration    20          0.708              1.629              1.293
 Vibration    21          0.761              1.484              0.987
 Vibration    22          0.769              1.463              0.951
 Vibration    23          0.770              1.459              0.944
 Vibration    24          0.783              1.426              0.890
 Vibration    25          0.785              1.420              0.882
 Vibration    26          0.792              1.402              0.854
 Vibration    27          0.820              1.333              0.758
 Vibration    28          0.836              1.296              0.712
 Vibration    29          0.847              1.270              0.681
 Vibration    30          0.864              1.231              0.637
 Vibration    31          0.867              1.223              0.628
 Vibration    32          0.876              1.204              0.608
 Vibration    33          0.888              1.177              0.580
 Vibration    34          0.893              1.167              0.571
 Vibration    35          0.909              1.132              0.537
 Vibration    36          0.912              1.126              0.531
 Vibration    37          0.929              1.090              0.499
 Vibration    38          0.948              1.052              0.466
 Vibration    39          0.961              1.026              0.445

 Optimization completed.
    -- Stationary point found.
 Normal termination of Gaussian 16 at Sun Oct 18 06:48:54 2020.
