 Gaussian 16, Revision C.01,
 Gaussian 16:  ES64L-G16RevC.01  3-Jul-2019

 --------------------------------------------------------------------
 #P B3LYP/6-311++G(d,p) EmpiricalDispersion=GD3 freq(noraman) SCF=YQC
 --------------------------------------------------------------------

 ----------------------------------------------
 Restart from 3_Phenyl_BoronicAcid_Boroxine.log
 ----------------------------------------------
 Symbolic Z-matrix:
 Charge =  0 Multiplicity = 1

                         Standard orientation:
 ---------------------------------------------------------------------
 Center     Atomic      Atomic             Coordinates (Angstroms)
 Number     Number       Type             X           Y           Z
 ---------------------------------------------------------------------
      1          6           0        1.113066   -0.874490    0.000029
      2          6           0       -0.197189   -1.376177    0.000028
      3          6           0       -1.313858   -0.526790    0.000028
      4          6           0       -1.093223    0.858764    0.000028
      5          6           0        0.200703    1.401134    0.000028
      6          6           0        1.290298    0.517273    0.000029
      7          1           0       -1.946327    1.528960    0.000030
      8          1           0        2.297252    0.920993    0.000031
      9          1           0       -0.351096   -2.450078    0.000031
     10          5           0        2.329632   -1.830077    0.000031
     11          8           0        2.151363   -3.204498    0.000023
     12          5           0        3.228274   -4.058116   -0.000024
     13          8           0        3.622645   -1.331138    0.000028
     14          5           0        4.707186   -2.175014   -0.000020
     15          8           0        4.505183   -3.538652   -0.000092
     16          1           0        3.061517   -5.231599   -0.000010
     17          1           0        5.807705   -1.734869   -0.000006
     18          5           0        0.420072    2.932497    0.000030
     19          8           0        1.699547    3.465216    0.000031
     20          5           0        1.900446    4.824629   -0.000015
     21          8           0       -0.658466    3.802890    0.000021
     22          5           0       -0.469810    5.164056   -0.000027
     23          8           0        0.812189    5.670814   -0.000091
     24          1           0        3.000122    5.266875    0.000006
     25          1           0       -1.401181    5.897141   -0.000018
     26          5           0       -2.749746   -1.102484    0.000030
     27          8           0       -3.850815   -0.260783    0.000025
     28          5           0       -5.128572   -0.766472   -0.000020
     29          8           0       -2.964264   -2.471712    0.000028
     30          5           0       -4.237408   -2.988893   -0.000018
     31          8           0       -5.317277   -2.132022   -0.000088
     32          1           0       -6.061390   -0.035227   -0.000004
     33          1           0       -4.406607   -4.162026   -0.000003
 ---------------------------------------------------------------------

 SCF Done:  E(RB3LYP) =  -1136.00737017     a.u. after    6 cycles
 SCF Done:  E(RB3LYP) =  -1136.00737417     A.U. after    9 cycles

 The electronic state is 1-A.
 Alpha  occ. eigenvalues --  -19.16015 -19.16015 -19.16015 -19.16014 -19.16014
 Alpha  occ. eigenvalues --  -19.16014 -19.15990 -19.15990 -19.15990 -10.20191
 Alpha  occ. eigenvalues --  -10.20191 -10.20191 -10.17914 -10.17914 -10.17912
 Alpha  occ. eigenvalues --   -6.81931  -6.81931  -6.81931  -6.81877  -6.81877
 Alpha  occ. eigenvalues --   -6.81877  -6.81877  -6.81876  -6.81876  -1.09357
 Alpha  occ. eigenvalues --   -1.09351  -1.09351  -1.03432  -1.03432  -1.03427
 Alpha  occ. eigenvalues --   -1.03391  -1.03386  -1.03386  -0.87324  -0.76859
 Alpha  occ. eigenvalues --   -0.76859  -0.64162  -0.64162  -0.61807  -0.61081
 Alpha  occ. eigenvalues --   -0.60802  -0.60802  -0.58451  -0.58451  -0.55823
 Alpha  occ. eigenvalues --   -0.54955  -0.54955  -0.53510  -0.50719  -0.50719
 Alpha  occ. eigenvalues --   -0.49628  -0.47054  -0.46921  -0.46921  -0.46366
 Alpha  occ. eigenvalues --   -0.44894  -0.42498  -0.42497  -0.41178  -0.41178
 Alpha  occ. eigenvalues --   -0.41103  -0.40995  -0.40922  -0.40922  -0.40295
 Alpha  occ. eigenvalues --   -0.39008  -0.39008  -0.38911  -0.38911  -0.38901
 Alpha  occ. eigenvalues --   -0.37403  -0.36686  -0.36686  -0.35533  -0.34403
 Alpha  occ. eigenvalues --   -0.34362  -0.34362  -0.33331  -0.33331  -0.28146
 Alpha  occ. eigenvalues --   -0.28146
 Alpha virt. eigenvalues --   -0.07378  -0.07378  -0.03316  -0.03193  -0.03175
 Alpha virt. eigenvalues --   -0.03175  -0.01368  -0.00042  -0.00042   0.00115
 Alpha virt. eigenvalues --    0.00115   0.00566   0.01709   0.01709   0.01834

 Mulliken charges:
               1
     1  C   -0.066910
     2  C   -0.507364
     3  C   -0.066984
     4  C   -0.507401
     5  C   -0.066839
     6  C   -0.507423
     7  H    0.272528
     8  H    0.272505
     9  H    0.272501
    10  B    0.785602
    11  O   -0.457413
    12  B    0.387526
    13  O   -0.457287
    14  B    0.387557
    15  O   -0.309167
    16  H   -0.017503
    17  H   -0.017501
    18  B    0.785641
    19  O   -0.457432
    20  B    0.387491
    21  O   -0.457336
    22  B    0.387522
    23  O   -0.309127
    24  H   -0.017506
    25  H   -0.017500
    26  B    0.785609
    27  O   -0.457350
    28  B    0.387526
    29  O   -0.457331
    30  B    0.387538
    31  O   -0.309174
    32  H   -0.017495
    33  H   -0.017501
 Sum of Mulliken charges =   0.00000

 Dipole moment (field-independent basis, Debye):
    X=             -0.0003    Y=             -0.0001    Z=              0.0001  Tot=              0.0003
 Quadrupole moment (field-independent basis, Debye-Ang):
   XX=           -145.9996   YY=           -145.9989   ZZ=           -128.9858
   XY=             -0.0003   XZ=             -0.0000   YZ=             -0.0000

  Exact polarizability:     255.596      -0.003     255.589       0.000      -0.000     111.930
 Approx polarizability:     334.307      -0.001     334.306       0.000      -0.000     179.057

                      1                      2                      3
                      A                      A                      A
 Frequencies --     35.9009                37.8360                38.1210
 Red. masses --      8.4720                 5.4181                 5.4304
 Frc consts  --      0.0064                 0.0046                 0.0046
 IR Inten    --      0.0409                 0.0001                 0.0003

                      4                      5                      6
                      A                      A                      A
 Frequencies --     43.6107                50.8257                50.8916
 Red. masses --      5.1562                 7.5711                 7.5701
 Frc consts  --      0.0058                 0.0115                 0.0116
 IR Inten    --      0.0000                 0.0037                 0.0037

                      7                      8                      9
                      A                      A                      A
 Frequencies --     76.1029                76.3673               140.2307
 Red. masses --     10.1078                10.1069                12.3298
 Frc consts  --      0.0345                 0.0347                 0.1429
 IR Inten    --      0.0000                 0.0000                 0.0821

                     10                     11                     12
                      A                      A                      A
 Frequencies --    145.0118               193.0048               193.2520
 Red. masses --      6.6522                 4.7228                 4.7186
 Frc consts  --      0.0824                 0.1037                 0.1038
 IR Inten    --      0.0000                 0.0000                 0.0000

                     13                     14                     15
                      A                      A                      A
 Frequencies --    208.4143               220.0124               221.6702
 Red. masses --     10.9219                 3.0126                 3.1705
 Frc consts  --      0.2795                 0.0859                 0.0918
 IR Inten    --      0.0000                 0.0000                 0.0000

                     16                     17                     18
                      A                      A                      A
 Frequencies --    221.7045               246.2614               246.2757
 Red. masses --      3.1699                 8.9320                 8.9307
 Frc consts  --      0.0918                 0.3191                 0.3191
 IR Inten    --      0.0000                 0.0002                 0.0002

                     19                     20                     21
                      A                      A                      A
 Frequencies --    323.1664               323.1932               328.9469
 Red. masses --      2.2867                 2.2866                 2.2215
 Frc consts  --      0.1407                 0.1407                 0.1416
 IR Inten    --      0.0000                 0.0000                 0.7976

                     22                     23                     24
                      A                      A                      A
 Frequencies --    381.1282               381.1518               467.6090
 Red. masses --      7.8431                 7.8428                 4.3909
 Frc consts  --      0.6712                 0.6713                 0.5657
 IR Inten    --      3.2023                 3.2030                 0.0000

                     25                     26                     27
                      A                      A                      A
 Frequencies --    467.7030               492.9326               547.3540
 Red. masses --      4.3917                 5.3914                 9.9184
 Frc consts  --      0.5660                 0.7718                 1.7508
 IR Inten    --      0.0000                 0.0000                 6.0846

                     28                     29                     30
                      A                      A                      A
 Frequencies --    547.3866               549.4961               565.7925
 Red. masses --      9.9186                 9.2195                 9.0738
 Frc consts  --      1.7510                 1.6402                 1.7114
 IR Inten    --      6.0568                 0.0013                70.3674

                     31                     32                     33
                      A                      A                      A
 Frequencies --    565.8158               589.1936               670.4755
 Red. masses --      9.0736                 9.1361                 6.5300
 Frc consts  --      1.7115                 1.8686                 1.7295
 IR Inten    --     70.4419                 0.0000                32.9436

                     34                     35                     36
                      A                      A                      A
 Frequencies --    744.1080               744.1393               747.0512
 Red. masses --      7.8250                 7.8249                 2.3036
 Frc consts  --      2.5527                 2.5529                 0.7574
 IR Inten    --      0.0001                 0.0017                68.3122

                     37                     38                     39
                      A                      A                      A
 Frequencies --    787.7923               787.8036               810.2314
 Red. masses --      7.2819                 7.2823                15.7917
 Frc consts  --      2.6627                 2.6629                 6.1080
 IR Inten    --      4.0676                 4.0668                 0.0087

                     40                     41                     42
                      A                      A                      A
 Frequencies --    810.5686               810.5871               919.7193
 Red. masses --     15.4772                15.4769                 1.6139
 Frc consts  --      5.9913                 5.9915                 0.8043
 IR Inten    --      5.1269                 5.1344                 0.0000

                     43                     44                     45
                      A                      A                      A
 Frequencies --    919.7668               919.7783               921.5265
 Red. masses --      1.6143                 1.6148                 1.8407
 Frc consts  --      0.8046                 0.8049                 0.9210
 IR Inten    --      0.0103                 0.0064                 0.0124

                     46                     47                     48
                      A                      A                      A
 Frequencies --    921.5398               922.3761               965.7476
 Red. masses --      1.8414                 1.8445                 1.7300
 Frc consts  --      0.9213                 0.9246                 0.9506
 IR Inten    --      0.0671               297.8486                 3.3509

                     49                     50                     51
                      A                      A                      A
 Frequencies --    985.2332               985.2409               985.4408
 Red. masses --      1.9220                 1.9219                 1.8115
 Frc consts  --      1.0992                 1.0991                 1.0365
 IR Inten    --      9.7560                 9.7768                 0.0062

                     52                     53                     54
                      A                      A                      A
 Frequencies --   1003.5123              1003.7340              1009.8908
 Red. masses --      1.3846                 1.3842                 5.3733
 Frc consts  --      0.8215                 0.8216                 3.2288
 IR Inten    --      0.0001                 0.0000                 0.0000

                     55                     56                     57
                      A                      A                      A
 Frequencies --   1011.7599              1043.9090              1043.9211
 Red. masses --      6.4833                 1.8033                 1.8034
 Frc consts  --      3.9102                 1.1578                 1.1579
 IR Inten    --      0.0000                 3.7675                 3.7826

                     58                     59                     60
                      A                      A                      A
 Frequencies --   1049.8357              1093.8241              1093.8643
 Red. masses --      1.6816                 2.2579                 2.2587
 Frc consts  --      1.0920                 1.5916                 1.5923
 IR Inten    --      0.0000                10.2403                10.2207

                     61                     62                     63
                      A                      A                      A
 Frequencies --   1145.7853              1147.4997              1147.5092
 Red. masses --     10.0418                 9.4181                 9.4148
 Frc consts  --      7.7673                 7.3066                 7.3042
 IR Inten    --      0.0000                 1.9591                 1.9539

                     64                     65                     66
                      A                      A                      A
 Frequencies --   1172.9941              1173.0460              1187.3654
 Red. masses --      1.9024                 1.9036                 2.5876
 Frc consts  --      1.5422                 1.5433                 2.1494
 IR Inten    --     13.6926                13.8628                 0.0003

                     67                     68                     69
                      A                      A                      A
 Frequencies --   1189.1661              1191.2463              1191.2528
 Red. masses --      2.6158                 2.5224                 2.5213
 Frc consts  --      2.1794                 2.1090                 2.1080
 IR Inten    --      0.0001                32.5335                32.4037

                     70                     71                     72
                      A                      A                      A
 Frequencies --   1298.1116              1298.8385              1298.8557
 Red. masses --      2.9515                 3.0168                 3.0162
 Frc consts  --      2.9303                 2.9985                 2.9980
 IR Inten    --      0.7601               545.8785               546.4874

                     73                     74                     75
                      A                      A                      A
 Frequencies --   1345.3223              1361.3801              1361.3871
 Red. masses --      1.9481                 7.8689                 7.8678
 Frc consts  --      2.0773                 8.5926                 8.5914
 IR Inten    --      0.0001               158.9104               157.7578

                     76                     77                     78
                      A                      A                      A
 Frequencies --   1374.0371              1374.0636              1374.2047
 Red. masses --      7.3032                 7.2965                 5.0314
 Frc consts  --      8.1238                 8.1167                 5.5982
 IR Inten    --   3299.8000              3291.9804                 9.9883

                     79                     80                     81
                      A                      A                      A
 Frequencies --   1375.2984              1439.7089              1444.6803
 Red. masses --      6.5436                11.2405                 4.3162
 Frc consts  --      7.2923                13.7273                 5.3075
 IR Inten    --      0.2138                 0.0002                 9.0808

                     82                     83                     84
                      A                      A                      A
 Frequencies --   1444.7120              1627.4565              1627.4991
 Red. masses --      4.3182                 4.7559                 4.7568
 Frc consts  --      5.3102                 7.4217                 7.4235
 IR Inten    --      8.9882               161.6994               161.7326

                     85                     86                     87
                      A                      A                      A
 Frequencies --   2679.1542              2679.6671              2679.6783
 Red. masses --      1.0958                 1.0961                 1.0961
 Frc consts  --      4.6344                 4.6372                 4.6372
 IR Inten    --      0.0694               305.4720               304.2290

                     88                     89                     90
                      A                      A                      A
 Frequencies --   2688.3362              2688.3476              2689.8218
 Red. masses --      1.1022                 1.1022                 1.1028
 Frc consts  --      4.6933                 4.6933                 4.7009
 IR Inten    --    209.0649               207.8583                 0.0122

                     91                     92                     93
                      A                      A                      A
 Frequencies --   3176.0158              3176.0459              3176.7533
 Red. masses --      1.0897                 1.0897                 1.0919
 Frc consts  --      6.4765                 6.4766                 6.4924
 IR Inten    --      0.6262                 0.6234                 0.0004

 - Thermochemistry -
 -------------------
 Temperature   298.150 Kelvin.  Pressure   1.00000 Atm.
 Atom     1 has atomic number  6 and mass  12.00000

 Molecular mass:   324.10840 amu.
 Principal axes and moments of inertia in atomic units:
                           1         2         3
     Eigenvalues --  9735.870329736.44982**********
           X            1.00000   0.00080   0.00000
           Y           -0.00080   1.00000   0.00000
           Z           -0.00000  -0.00000   1.00000
 This molecule is an asymmetric top.
 Rotational symmetry number  1.
 Warning -- assumption of classical behavior for rotation
           may cause significant error
 Rotational temperatures (Kelvin)      0.00890     0.00890     0.00445
 Rotational constants (GHZ):           0.18537     0.18536     0.09268
 Zero-point vibrational energy     549773.7 (Joules/Mol)
                                  131.39906 (Kcal/Mol)
 Warning -- explicit consideration of  32 degrees of freedom as
           vibrations may cause significant error
 Vibrational temperatures:     51.65    54.44    54.85    62.75    73.13
          (Kelvin)             73.22   109.50   109.88   201.76   208.64
                              277.69   278.05   299.86   316.55   318.93
                              318.98   354.32   354.34   464.96   465.00
                              473.28   548.36   548.39   672.78   672.92
                              709.22   787.52   787.57   790.60   814.05
                              814.08   847.72   964.66  1070.61  1070.65
                             1074.84  1133.46  1133.47  1165.74  1166.23
                             1166.25  1323.27  1323.34  1323.36  1325.87
                             1325.89  1327.09  1389.50  1417.53  1417.54
                             1417.83  1443.83  1444.15  1453.01  1455.70
                             1501.95  1501.97  1510.48  1573.77  1573.83
                             1648.53  1651.00  1651.01  1687.68  1687.75
                             1708.35  1710.94  1713.94  1713.95  1867.69
                             1868.74  1868.76  1935.62  1958.72  1958.73
                             1976.93  1976.97  1977.17  1978.75  2071.42
                             2078.57  2078.62  2341.55  2341.61  3854.71
                             3855.44  3855.46  3867.92  3867.93  3870.05
                             4569.58  4569.62  4570.64

 Zero-point correction=                           0.209398 (Hartree/Particle)
 Thermal correction to Energy=                    0.229951
 Thermal correction to Enthalpy=                  0.230895
 Thermal correction to Gibbs Free Energy=         0.157134
 Sum of electronic and zero-point Energies=          -1135.797976
 Sum of electronic and thermal Energies=             -1135.777423
 Sum of electronic and thermal Enthalpies=           -1135.776479
 Sum of electronic and thermal Free Energies=        -1135.850240

                     E (Thermal)             CV                S
                      KCal/Mol        Cal/Mol-Kelvin    Cal/Mol-Kelvin
 Total                  144.297             76.091            155.243
 Electronic               0.000              0.000              0.000
 Translational            0.889              2.981             43.223
 Rotational               0.889              2.981             35.866
 Vibrational            142.519             70.129             76.154
 Vibration     1          0.594              1.982              5.473
 Vibration     2          0.594              1.982              5.369
 Vibration     3          0.594              1.982              5.354
 Vibration     4          0.595              1.980              5.088
 Vibration     5          0.595              1.977              4.785
 Vibration     6          0.595              1.977              4.782
 Vibration     7          0.599              1.965              3.989
 Vibration     8          0.599              1.965              3.982
 Vibration     9          0.615              1.913              2.801
 Vibration    10          0.616              1.908              2.737
 Vibration    11          0.635              1.850              2.199
 Vibration    12          0.635              1.849              2.196
 Vibration    13          0.642              1.828              2.058
 Vibration    14          0.647              1.811              1.959
 Vibration    15          0.648              1.808              1.945
 Vibration    16          0.648              1.808              1.945
 Vibration    17          0.661              1.769              1.757
 Vibration    18          0.661              1.769              1.757
 Vibration    19          0.708              1.629              1.294
 Vibration    20          0.708              1.629              1.294
 Vibration    21          0.712              1.618              1.265
 Vibration    22          0.751              1.510              1.035
 Vibration    23          0.751              1.510              1.035
 Vibration    24          0.825              1.322              0.744
 Vibration    25          0.825              1.322              0.744
 Vibration    26          0.849              1.266              0.676
 Vibration    27          0.903              1.145              0.550
 Vibration    28          0.903              1.145              0.550
 Vibration    29          0.905              1.141              0.545
 Vibration    30          0.922              1.105              0.512
 Vibration    31          0.922              1.105              0.512
 Vibration    32          0.946              1.055              0.469

 Optimization completed.
    -- Stationary point found.
 Normal termination of Gaussian 16 at Sun Aug  2 08:40:45 2020.
