 Gaussian 16, Revision A.03,
 Gaussian 16:  ES64L-G16RevA.03 25-Dec-2016

 --------------------------------------------------------------------
 #P B3LYP/6-311++G(d,p) EmpiricalDispersion=GD3 freq(noraman) SCF=YQC
 --------------------------------------------------------------------

 ---------------------------------
 Restart from Boroxine_benzene.log
 ---------------------------------
 Symbolic Z-matrix:
 Charge =  0 Multiplicity = 1

                         Standard orientation:
 ---------------------------------------------------------------------
 Center     Atomic      Atomic             Coordinates (Angstroms)
 Number     Number       Type             X           Y           Z
 ---------------------------------------------------------------------
      1          8           0       -0.686990    1.189841   -0.000007
      2          8           0        1.373928    0.000030   -0.000007
      3          8           0       -0.686938   -1.189871   -0.000007
      4          5           0        0.695844    1.205307   -0.000007
      5          5           0        0.695904   -1.205272   -0.000007
      6          5           0       -1.391748   -0.000035   -0.000007
      7          6           0        0.785020    3.772816    0.000000
      8          6           0        2.874844   -2.566255    0.000000
      9          6           0       -3.659864   -1.206561    0.000000
     10          1           0       -0.299393    3.770465   -0.000002
     11          1           0        3.415015   -1.625950   -0.000002
     12          1           0       -3.115622   -2.144515   -0.000002
     13          6           0        1.470178    2.546487   -0.000002
     14          6           0        1.470234   -2.546456   -0.000002
     15          6           0       -2.940412   -0.000032   -0.000002
     16          6           0        3.573228    3.770543    0.000004
     17          6           0        1.478772   -4.979778    0.000004
     18          6           0       -5.052000    1.209235    0.000004
     19          1           0        4.657652    3.771683    0.000006
     20          1           0        0.937547   -5.919486    0.000006
     21          1           0       -5.595199    2.147804    0.000006
     22          6           0        2.874389    4.978588    0.000006
     23          6           0        2.874389   -4.978588    0.000006
     24          6           0       -5.748778    0.000000    0.000006
     25          6           0        2.874793    2.566250    0.000000
     26          6           0        0.785041   -3.772768    0.000000
     27          6           0       -3.659834    1.206519    0.000000
     28          1           0        3.414888    1.625903   -0.000002
     29          1           0       -0.299371   -3.770331   -0.000002
     30          1           0       -3.115517    2.144428   -0.000002
     31          6           0        1.478771    4.979810    0.000004
     32          6           0        3.573257   -3.770558    0.000004
     33          6           0       -5.052027   -1.209252    0.000004
     34          1           0        0.937571    5.919530    0.000006
     35          1           0        4.657678   -3.771726    0.000006
     36          1           0       -5.595249   -2.147805    0.000006
     37          1           0        3.416747    5.917935    0.000009
     38          1           0        3.416708   -5.917957    0.000009
     39          1           0       -6.833455    0.000022    0.000009
 ---------------------------------------------------------------------

 SCF Done:  E(RB3LYP) =  -995.825288333     a.u. after    6 cycles
 SCF Done:  E(RB3LYP) =  -995.825309361     A.U. after    8 cycles

 The electronic state is 1-A.
 Alpha  occ. eigenvalues --  -19.14292 -19.14292 -19.14291 -10.18560 -10.18560
 Alpha  occ. eigenvalues --  -10.18560 -10.18203 -10.18203 -10.18203 -10.18203
 Alpha  occ. eigenvalues --  -10.18203 -10.18202 -10.18055 -10.18055 -10.18055
 Alpha  occ. eigenvalues --  -10.18052 -10.18052 -10.18052 -10.16504 -10.16504
 Alpha  occ. eigenvalues --  -10.16503  -6.80229  -6.80229  -6.80229  -1.07651
 Alpha  occ. eigenvalues --   -1.01775  -1.01775  -0.86102  -0.86102  -0.86064
 Alpha  occ. eigenvalues --   -0.75509  -0.75509  -0.75361  -0.75316  -0.75316
 Alpha  occ. eigenvalues --   -0.75229  -0.62710  -0.62710  -0.61411  -0.60989
 Alpha  occ. eigenvalues --   -0.60934  -0.60934  -0.57378  -0.57378  -0.53819
 Alpha  occ. eigenvalues --   -0.53499  -0.51886  -0.51886  -0.48064  -0.46406
 Alpha  occ. eigenvalues --   -0.46047  -0.46047  -0.45669  -0.45389  -0.45389
 Alpha  occ. eigenvalues --   -0.44853  -0.42972  -0.42972  -0.42753  -0.41394
 Alpha  occ. eigenvalues --   -0.41394  -0.41211  -0.38634  -0.38634  -0.37285
 Alpha  occ. eigenvalues --   -0.36541  -0.36541  -0.35873  -0.35873  -0.34940
 Alpha  occ. eigenvalues --   -0.34940  -0.34801  -0.34702  -0.32365  -0.32365
 Alpha  occ. eigenvalues --   -0.26678  -0.26678  -0.26249  -0.26236  -0.26236
 Alpha  occ. eigenvalues --   -0.26186
 Alpha virt. eigenvalues --   -0.05748  -0.05748  -0.03430  -0.01923  -0.01923
 Alpha virt. eigenvalues --   -0.01774  -0.01249  -0.00376  -0.00376   0.00840
 Alpha virt. eigenvalues --    0.00840   0.00846   0.02045   0.02546   0.02709

 Mulliken charges:
               1
     1  O   -0.863070
     2  O   -0.863070
     3  O   -0.863070
     4  B    0.999863
     5  B    0.999863
     6  B    0.999863
     7  C   -0.099008
     8  C   -0.099008
     9  C   -0.099008
    10  H    0.175286
    11  H    0.175286
    12  H    0.175286
    13  C   -0.321820
    14  C   -0.321820
    15  C   -0.321820
    16  C   -0.066103
    17  C   -0.066103
    18  C   -0.066103
    19  H    0.175233
    20  H    0.175233
    21  H    0.175233
    22  C   -0.337146
    23  C   -0.337146
    24  C   -0.337146
    25  C   -0.098896
    26  C   -0.098896
    27  C   -0.098896
    28  H    0.175341
    29  H    0.175341
    30  H    0.175341
    31  C   -0.065976
    32  C   -0.065976
    33  C   -0.065976
    34  H    0.175232
    35  H    0.175232
    36  H    0.175232
    37  H    0.151065
    38  H    0.151065
    39  H    0.151065
 Sum of Mulliken charges =   0.00000

 Dipole moment (field-independent basis, Debye):
    X=              0.0000    Y=              0.0000    Z=              0.0000  Tot=              0.0000
 Quadrupole moment (field-independent basis, Debye-Ang):
   XX=           -120.8883   YY=           -120.8883   ZZ=           -146.0128
   XY=              0.0000   XZ=             -0.0000   YZ=             -0.0000

  Exact polarizability: 320.010   0.000 320.003   0.000   0.000 132.260
 Approx polarizability: 467.903   0.000 467.903  -0.000   0.000 212.310

                      1                      2                      3
                      E                      E                      A
 Frequencies --     33.0245                33.0245                34.7923
 Red. masses --      3.9076                 3.9076                 6.4680
 Frc consts  --      0.0025                 0.0025                 0.0046
 IR Inten    --      0.0000                 0.0000                 0.5171

                      4                      5                      6
                      A                      E                      E
 Frequencies --     40.0781                52.5036                52.5036
 Red. masses --      3.6517                 5.2487                 5.2487
 Frc consts  --      0.0035                 0.0085                 0.0085
 IR Inten    --      0.0001                 0.0662                 0.0662

                      7                      8                      9
                      E                      E                      A
 Frequencies --     94.3324                94.3324               145.8582
 Red. masses --      6.5796                 6.5796                 5.0058
 Frc consts  --      0.0345                 0.0345                 0.0627
 IR Inten    --      0.0000                 0.0000                 0.0000

                     10                     11                     12
                      E                      E                      A
 Frequencies --    173.2218               173.2218               193.0885
 Red. masses --      7.1028                 7.1028                 5.7238
 Frc consts  --      0.1256                 0.1256                 0.1257
 IR Inten    --      0.0000                 0.0000                 1.5993

                     13                     14                     15
                      A                      E                      E
 Frequencies --    219.6393               247.5175               247.5175
 Red. masses --      6.6252                 5.7183                 5.7183
 Frc consts  --      0.1883                 0.2064                 0.2064
 IR Inten    --      0.0000                 0.4575                 0.4575

                     16                     17                     18
                      E                      E                      A
 Frequencies --    369.5742               369.5742               411.0081
 Red. masses --      7.9284                 7.9284                 2.8095
 Frc consts  --      0.6380                 0.6380                 0.2796
 IR Inten    --      0.8246                 0.8245                 0.0000

                     19                     20                     21
                      E                      E                      E
 Frequencies --    412.3341               412.3341               432.2751
 Red. masses --      2.8284                 2.8284                 3.7791
 Frc consts  --      0.2833                 0.2833                 0.4161
 IR Inten    --      0.0000                 0.0000                 0.0000

                     22                     23                     24
                      E                      A                      A
 Frequencies --    432.2751               454.6134               514.7473
 Red. masses --      3.7791                 3.6544                 8.7106
 Frc consts  --      0.4161                 0.4450                 1.3598
 IR Inten    --      0.0000                 3.8465                 0.0000

                     25                     26                     27
                      E                      E                      A
 Frequencies --    591.7858               591.7858               632.8037
 Red. masses --      9.2569                 9.2569                 6.4773
 Frc consts  --      1.9100                 1.9100                 1.5282
 IR Inten    --     39.3464                39.3448                 0.0000

                     28                     29                     30
                      E                      E                      E
 Frequencies --    633.7517               633.7517               666.4518
 Red. masses --      6.4693                 6.4693                 4.8313
 Frc consts  --      1.5309                 1.5309                 1.2643
 IR Inten    --      1.2590                 1.2593                 0.0000

                     31                     32                     33
                      E                      A                      A
 Frequencies --    666.4518               675.1144               708.2044
 Red. masses --      4.8313                 6.7302                 2.5124
 Frc consts  --      1.2643                 1.8073                 0.7424
 IR Inten    --      0.0000                 0.0000                31.3299

                     34                     35                     36
                      E                      E                      A
 Frequencies --    711.7490               711.7490               730.2632
 Red. masses --      1.5079                 1.5079                 1.6754
 Frc consts  --      0.4501                 0.4501                 0.5264
 IR Inten    --      0.0000                 0.0000               292.1955

                     37                     38                     39
                      E                      E                      E
 Frequencies --    775.0642               775.0642               790.8843
 Red. masses --      7.3327                 7.3327                 2.4368
 Frc consts  --      2.5953                 2.5953                 0.8980
 IR Inten    --      5.1661                 5.1661                 0.0000

                     40                     41                     42
                      E                      A                      A
 Frequencies --    790.8843               811.1968               813.5753
 Red. masses --      2.4368                15.9505                 3.9105
 Frc consts  --      0.8980                 6.1841                 1.5250
 IR Inten    --      0.0000                 0.0000                 4.0853

                     43                     44                     45
                      A                      E                      E
 Frequencies --    869.0559               870.7804               870.7804
 Red. masses --      1.2472                 1.2463                 1.2463
 Frc consts  --      0.5550                 0.5568                 0.5568
 IR Inten    --      0.0000                 0.0000                 0.0000

                     46                     47                     48
                      E                      E                      A
 Frequencies --    952.7455               952.7455               954.2622
 Red. masses --      1.3987                 1.3987                 1.3961
 Frc consts  --      0.7480                 0.7480                 0.7491
 IR Inten    --      0.0000                 0.0000                 0.6371

                     49                     50                     51
                      A                      E                      E
 Frequencies --    999.2105              1000.4601              1000.4601
 Red. masses --      1.3898                 1.3866                 1.3866
 Frc consts  --      0.8176                 0.8177                 0.8177
 IR Inten    --      0.0000                 0.0000                 0.0000

                     52                     53                     54
                      E                      E                      A
 Frequencies --   1011.5852              1011.5852              1011.8111
 Red. masses --      1.3047                 1.3047                 1.3010
 Frc consts  --      0.7866                 0.7866                 0.7848
 IR Inten    --      0.0000                 0.0000                 0.0556

                     55                     56                     57
                      A                      E                      E
 Frequencies --   1012.3470              1014.4909              1014.4909
 Red. masses --      6.5510                 6.2446                 6.2446
 Frc consts  --      3.9556                 3.7866                 3.7866
 IR Inten    --      0.0000                 1.2720                 1.2718

                     58                     59                     60
                      A                      E                      E
 Frequencies --   1023.0091              1045.7364              1045.7364
 Red. masses --      7.5949                 2.8384                 2.8384
 Frc consts  --      4.6831                 1.8288                 1.8288
 IR Inten    --      0.0000                27.6405                27.6404

                     61                     62                     63
                      A                      E                      E
 Frequencies --   1060.1451              1087.6938              1087.6938
 Red. masses --      1.9137                 2.2814                 2.2814
 Frc consts  --      1.2672                 1.5902                 1.5902
 IR Inten    --      0.0000                 0.0013                 0.0014

                     64                     65                     66
                      A                      E                      E
 Frequencies --   1099.4511              1111.6046              1111.6046
 Red. masses --      1.6808                 2.3055                 2.3055
 Frc consts  --      1.1971                 1.6785                 1.6785
 IR Inten    --      0.0000                37.8889                37.8908

                     67                     68                     69
                      A                      A                      E
 Frequencies --   1155.7278              1191.4524              1191.5838
 Red. masses --     10.3725                 1.1303                 1.1311
 Frc consts  --      8.1629                 0.9454                 0.9462
 IR Inten    --      0.0000                 0.0000                 1.4203

                     70                     71                     72
                      E                      E                      E
 Frequencies --   1191.5838              1209.5668              1209.5668
 Red. masses --      1.1311                 1.1416                 1.1416
 Frc consts  --      0.9462                 0.9841                 0.9841
 IR Inten    --      1.4204                45.6583                45.6583

                     73                     74                     75
                      A                      E                      E
 Frequencies --   1212.8734              1290.1201              1290.1201
 Red. masses --      1.1458                 4.8517                 4.8517
 Frc consts  --      0.9931                 4.7578                 4.7578
 IR Inten    --      0.0000                 0.5557                 0.5555

                     76                     77                     78
                      A                      E                      E
 Frequencies --   1320.3844              1331.0015              1331.0015
 Red. masses --      3.4830                 3.9644                 3.9644
 Frc consts  --      3.5777                 4.1379                 4.1379
 IR Inten    --      0.0000               219.2430               219.2481

                     79                     80                     81
                      A                      E                      E
 Frequencies --   1352.6341              1354.0095              1354.0095
 Red. masses --      1.6367                 1.6343                 1.6343
 Frc consts  --      1.7643                 1.7653                 1.7653
 IR Inten    --      0.0000                 5.7125                 5.7125

                     82                     83                     84
                      A                      E                      E
 Frequencies --   1363.2336              1367.8279              1367.8279
 Red. masses --      4.6919                 8.2355                 8.2355
 Frc consts  --      5.1373                 9.0783                 9.0783
 IR Inten    --      0.0000              2014.9585              2014.9572

                     85                     86                     87
                      A                      E                      E
 Frequencies --   1465.4959              1468.6174              1468.6174
 Red. masses --      2.0974                 2.1619                 2.1619
 Frc consts  --      2.6540                 2.7473                 2.7473
 IR Inten    --      0.0000                79.8823                79.8798

                     88                     89                     90
                      E                      E                      A
 Frequencies --   1523.9501              1523.9501              1527.7522
 Red. masses --      2.2347                 2.2347                 2.3480
 Frc consts  --      3.0578                 3.0578                 3.2288
 IR Inten    --     18.1545                18.1550                 0.0000

                     91                     92                     93
                      A                      E                      E
 Frequencies --   1609.0748              1611.1933              1611.1933
 Red. masses --      5.0284                 5.0445                 5.0445
 Frc consts  --      7.6706                 7.7154                 7.7154
 IR Inten    --      0.0000                 5.3537                 5.3531

                     94                     95                     96
                      E                      E                      A
 Frequencies --   1640.9895              1640.9895              1642.6143
 Red. masses --      5.3433                 5.3433                 5.3986
 Frc consts  --      8.4776                 8.4776                 8.5823
 IR Inten    --     72.3031                72.3024                 0.0000

                     97                     98                     99
                      E                      E                      A
 Frequencies --   3155.5953              3155.5953              3155.6416
 Red. masses --      1.0854                 1.0854                 1.0854
 Frc consts  --      6.3678                 6.3678                 6.3679
 IR Inten    --      0.1108                 0.1108                 0.0000

                    100                    101                    102
                      A                      E                      E
 Frequencies --   3164.4465              3164.5623              3164.5623
 Red. masses --      1.0874                 1.0875                 1.0875
 Frc consts  --      6.4156                 6.4164                 6.4164
 IR Inten    --      0.0000                 1.8637                 1.8657

                    103                    104                    105
                      E                      E                      A
 Frequencies --   3173.2065              3173.2065              3173.3653
 Red. masses --      1.0913                 1.0913                 1.0912
 Frc consts  --      6.4740                 6.4740                 6.4746
 IR Inten    --     18.2901                18.2921                 0.0000

                    106                    107                    108
                      A                      E                      E
 Frequencies --   3180.6197              3180.8927              3180.8927
 Red. masses --      1.0941                 1.0941                 1.0941
 Frc consts  --      6.5214                 6.5225                 6.5225
 IR Inten    --      0.0000                42.1514                42.1359

                    109                    110                    111
                      E                      E                      A
 Frequencies --   3187.1130              3187.1130              3187.3746
 Red. masses --      1.0981                 1.0981                 1.0980
 Frc consts  --      6.5717                 6.5717                 6.5726
 IR Inten    --     23.8776                23.8781                 0.0000

 - Thermochemistry -
 -------------------
 Temperature   298.150 Kelvin.  Pressure   1.00000 Atm.
 Atom     1 has atomic number  8 and mass  15.99491

 Molecular mass:   312.13004 amu.
 Principal axes and moments of inertia in atomic units:
                           1         2         3
     Eigenvalues --  9128.700129128.70012**********
           X           -0.04120   0.99915   0.00000
           Y            0.99915   0.04120   0.00000
           Z            0.00000   0.00000   1.00000
 This molecule is an oblate symmetric top.
 Rotational symmetry number  3.
 Warning -- assumption of classical behavior for rotation
           may cause significant error
 Rotational temperatures (Kelvin)      0.00949     0.00949     0.00474
 Rotational constants (GHZ):           0.19770     0.19770     0.09885
 Zero-point vibrational energy     789395.1 (Joules/Mol)
                                  188.66996 (Kcal/Mol)
 Warning -- explicit consideration of  26 degrees of freedom as
           vibrations may cause significant error
 Vibrational temperatures:     47.51    47.51    50.06    57.66    75.54
          (Kelvin)             75.54   135.72   135.72   209.86   249.23
                              249.23   277.81   316.01   356.12   356.12
                              531.73   531.73   591.35   593.26   593.26
                              621.95   621.95   654.09   740.61   851.45
                              851.45   910.46   911.83   911.83   958.88
                              958.88   971.34  1018.95  1024.05  1024.05
                             1050.69  1115.14  1115.14  1137.91  1137.91
                             1167.13  1170.55  1250.38  1252.86  1252.86
                             1370.79  1370.79  1372.97  1437.64  1439.44
                             1439.44  1455.45  1455.45  1455.77  1456.54
                             1459.63  1459.63  1471.88  1504.58  1504.58
                             1525.31  1564.95  1564.95  1581.86  1599.35
                             1599.35  1662.83  1714.23  1714.42  1714.42
                             1740.30  1740.30  1745.05  1856.20  1856.20
                             1899.74  1915.01  1915.01  1946.14  1948.12
                             1948.12  1961.39  1968.00  1968.00  2108.52
                             2113.01  2113.01  2192.62  2192.62  2198.09
                             2315.10  2318.15  2318.15  2361.02  2361.02
                             2363.36  4540.20  4540.20  4540.26  4552.93
                             4553.10  4553.10  4565.54  4565.54  4565.76
                             4576.20  4576.60  4576.60  4585.54  4585.54
                             4585.92

 Zero-point correction=                           0.300665 (Hartree/Particle)
 Thermal correction to Energy=                    0.319860
 Thermal correction to Enthalpy=                  0.320805
 Thermal correction to Gibbs Free Energy=         0.250978
 Sum of electronic and zero-point Energies=           -995.524645
 Sum of electronic and thermal Energies=              -995.505449
 Sum of electronic and thermal Enthalpies=            -995.504505
 Sum of electronic and thermal Free Energies=         -995.574332

                     E (Thermal)             CV                S
                      KCal/Mol        Cal/Mol-Kelvin    Cal/Mol-Kelvin
 Total                  200.715             74.812            146.963
 Electronic               0.000              0.000              0.000
 Translational            0.889              2.981             43.111
 Rotational               0.889              2.981             33.491
 Vibrational            198.938             68.850             70.361
 Vibration     1          0.594              1.983              5.639
 Vibration     2          0.594              1.983              5.639
 Vibration     3          0.594              1.983              5.536
 Vibration     4          0.594              1.981              5.255
 Vibration     5          0.596              1.977              4.721
 Vibration     6          0.596              1.977              4.721
 Vibration     7          0.603              1.953              3.568
 Vibration     8          0.603              1.953              3.568
 Vibration     9          0.617              1.907              2.726
 Vibration    10          0.627              1.875              2.400
 Vibration    11          0.627              1.875              2.400
 Vibration    12          0.635              1.849              2.198
 Vibration    13          0.647              1.811              1.962
 Vibration    14          0.661              1.767              1.748
 Vibration    15          0.661              1.767              1.748
 Vibration    16          0.742              1.535              1.082
 Vibration    17          0.742              1.535              1.082
 Vibration    18          0.775              1.446              0.923
 Vibration    19          0.776              1.443              0.918
 Vibration    20          0.776              1.443              0.918
 Vibration    21          0.793              1.400              0.851
 Vibration    22          0.793              1.400              0.851
 Vibration    23          0.813              1.351              0.782
 Vibration    24          0.870              1.217              0.622
 Vibration    25          0.949              1.049              0.464
 Vibration    26          0.949              1.049              0.464

 Optimization completed.
    -- Stationary point found.
 Normal termination of Gaussian 16 at Wed Apr 15 13:00:05 2020.
