 Gaussian 16, Revision C.01,
 Gaussian 16:  ES64L-G16RevC.01  3-Jul-2019

 ----------------------------------------------------------------------
 #P B3LYP/6-311++G(d,p) EmpiricalDispersion=GD3 freq(noraman) SCF=YQC N
 oSymm
 ----------------------------------------------------------------------

 ------------------------------------------
 Restart from Pyrene_PrimaryAmine_Imine.log
 ------------------------------------------
 Symbolic Z-matrix:
 Charge =  0 Multiplicity = 1

                          Input orientation:
 ---------------------------------------------------------------------
 Center     Atomic      Atomic             Coordinates (Angstroms)
 Number     Number       Type             X           Y           Z
 ---------------------------------------------------------------------
      1          6           0        0.004683    3.531205   -0.018881
      2          6           0       -1.203794    2.827961   -0.087551
      3          6           0       -1.229194    1.430760   -0.060932
      4          6           0        0.001290    0.710794   -0.003321
      5          6           0        1.234137    1.425764    0.031616
      6          6           0        1.214998    2.825194    0.025582
      7          1           0       -2.128385    3.390835   -0.147594
      8          1           0        2.153577    3.368555    0.020874
      9          6           0       -0.001121   -0.710808    0.003320
     10          6           0       -1.233968   -1.425778   -0.031617
     11          6           0       -1.214829   -2.825209   -0.025583
     12          6           0       -0.004514   -3.531219    0.018879
     13          6           0        1.203963   -2.827976    0.087549
     14          6           0        1.229363   -1.430775    0.060931
     15          1           0       -2.153408   -3.368570   -0.020876
     16          1           0        2.128554   -3.390850    0.147592
     17          6           0        2.459700    0.675077    0.074991
     18          6           0        2.457445   -0.683840    0.095038
     19          1           0        3.397496    1.220455    0.097803
     20          1           0        3.392625   -1.232401    0.134768
     21          6           0       -2.457276    0.683825   -0.095039
     22          6           0       -2.459532   -0.675091   -0.074992
     23          1           0       -3.392455    1.232386   -0.134769
     24          1           0       -3.397328   -1.220470   -0.097804
     25          7           0       -0.055669    4.935237   -0.050431
     26          6           0        0.720478    5.628271    0.688745
     27          6           0        0.750827    7.095441    0.657473
     28          6           0        1.613356    7.781179    1.523375
     29          6           0        1.665555    9.173108    1.516412
     30          6           0        0.854157    9.893411    0.642049
     31          6           0       -0.009725    9.217320   -0.225187
     32          6           0       -0.062510    7.830005   -0.220435
     33          1           0        1.405272    5.154548    1.406337
     34          1           0        2.244646    7.219526    2.204877
     35          1           0        2.336465    9.693401    2.190420
     36          1           0        0.892402   10.976946    0.633992
     37          1           0       -0.640486    9.778691   -0.905354
     38          1           0       -0.725745    7.292539   -0.887037
     39          7           0        0.055837   -4.935252    0.050428
     40          6           0       -0.720319   -5.628280   -0.688745
     41          6           0       -0.750677   -7.095449   -0.657472
     42          6           0       -1.613220   -7.781182   -1.523364
     43          6           0       -1.665426   -9.173111   -1.516401
     44          6           0       -0.854023   -9.893419   -0.642048
     45          6           0        0.009874   -9.217334    0.225177
     46          6           0        0.062666   -7.830018    0.220426
     47          1           0       -1.405120   -5.154552   -1.406326
     48          1           0       -2.244515   -7.219525   -2.204858
     49          1           0       -2.336348   -9.693400   -2.190401
     50          1           0       -0.892273  -10.976954   -0.633991
     51          1           0        0.640640   -9.778709    0.905337
     52          1           0        0.725913   -7.292557    0.887020
 ---------------------------------------------------------------------

 SCF Done:  E(RB3LYP) =  -1265.12545873     a.u. after    7 cycles
 SCF Done:  E(RB3LYP) =  -1265.12546355     A.U. after    9 cycles

 Alpha  occ. eigenvalues --  -14.31922 -14.31922 -10.22746 -10.22746 -10.21367
 Alpha  occ. eigenvalues --  -10.21367 -10.19466 -10.19466 -10.19130 -10.19129
 Alpha  occ. eigenvalues --  -10.19066 -10.19066 -10.19012 -10.19012 -10.18920
 Alpha  occ. eigenvalues --  -10.18920 -10.18779 -10.18746 -10.18746 -10.18734
 Alpha  occ. eigenvalues --  -10.18619 -10.18619 -10.18444 -10.18444 -10.18216
 Alpha  occ. eigenvalues --  -10.18216 -10.18140 -10.18140 -10.18039 -10.18039
 Alpha  occ. eigenvalues --  -10.17689 -10.17688  -0.94777  -0.94738  -0.89762
 Alpha  occ. eigenvalues --   -0.87275  -0.87088  -0.85045  -0.83764  -0.80370
 Alpha  occ. eigenvalues --   -0.77962  -0.77438  -0.76842  -0.76117  -0.76067
 Alpha  occ. eigenvalues --   -0.75277  -0.73066  -0.71888  -0.67535  -0.65355
 Alpha  occ. eigenvalues --   -0.63972  -0.63024  -0.62768  -0.62181  -0.61898
 Alpha  occ. eigenvalues --   -0.61336  -0.59000  -0.57089  -0.54399  -0.53476
 Alpha  occ. eigenvalues --   -0.52956  -0.52938  -0.52009  -0.51423  -0.50660
 Alpha  occ. eigenvalues --   -0.49634  -0.48625  -0.47460  -0.47248  -0.45558
 Alpha  occ. eigenvalues --   -0.45471  -0.45038  -0.44178  -0.44058  -0.43697
 Alpha  occ. eigenvalues --   -0.43469  -0.43424  -0.42960  -0.42245  -0.42066
 Alpha  occ. eigenvalues --   -0.40788  -0.39906  -0.39749  -0.39653  -0.39379
 Alpha  occ. eigenvalues --   -0.38182  -0.37844  -0.37066  -0.36438  -0.35824
 Alpha  occ. eigenvalues --   -0.35704  -0.35250  -0.35061  -0.34926  -0.34130
 Alpha  occ. eigenvalues --   -0.32725  -0.30958  -0.28768  -0.28330  -0.26945
 Alpha  occ. eigenvalues --   -0.26936  -0.26761  -0.26374  -0.26225  -0.24835
 Alpha  occ. eigenvalues --   -0.21529  -0.20798
 Alpha virt. eigenvalues --   -0.07798  -0.06753  -0.06734  -0.02562  -0.02498
 Alpha virt. eigenvalues --   -0.01974  -0.01851  -0.00947  -0.00846  -0.00253
 Alpha virt. eigenvalues --   -0.00179   0.00001   0.00628   0.00851   0.01134

 Mulliken charges:
               1
     1  C   -0.295555
     2  C   -0.296767
     3  C    0.583723
     4  C   -0.191409
     5  C    0.560742
     6  C   -0.178701
     7  H    0.162358
     8  H    0.143758
     9  C   -0.191410
    10  C    0.560741
    11  C   -0.178697
    12  C   -0.295551
    13  C   -0.296766
    14  C    0.583719
    15  H    0.143757
    16  H    0.162358
    17  C   -0.324651
    18  C   -0.410603
    19  H    0.134768
    20  H    0.136408
    21  C   -0.410604
    22  C   -0.324652
    23  H    0.136408
    24  H    0.134768
    25  N    0.238085
    26  C   -0.430321
    27  C    0.947798
    28  C   -0.464823
    29  C   -0.410337
    30  C   -0.370551
    31  C   -0.189093
    32  C   -0.308100
    33  H    0.095328
    34  H    0.163368
    35  H    0.167690
    36  H    0.160015
    37  H    0.180952
    38  H    0.195918
    39  N    0.238085
    40  C   -0.430317
    41  C    0.947798
    42  C   -0.464823
    43  C   -0.410333
    44  C   -0.370555
    45  C   -0.189091
    46  C   -0.308106
    47  H    0.095326
    48  H    0.163367
    49  H    0.167690
    50  H    0.160015
    51  H    0.180952
    52  H    0.195918
 Sum of Mulliken charges =   0.00000

 Dipole moment (field-independent basis, Debye):
    X=             -0.0000    Y=              0.0000    Z=              0.0000  Tot=              0.0000
 Quadrupole moment (field-independent basis, Debye-Ang):
   XX=           -171.2815   YY=           -139.3798   ZZ=           -188.6595
   XY=             12.5965   XZ=              9.7064   YZ=             10.7144

  Exact polarizability:     330.374      53.924     885.856      48.430      41.854     219.192
 Approx polarizability:     612.137      51.401    1135.595     100.509      36.629     379.607

                      1                      2                      3
                      A                      A                      A
 Frequencies --     13.3768                26.7472                28.8602
 Red. masses --      6.5454                 5.4337                 3.8874
 Frc consts  --      0.0007                 0.0023                 0.0019
 IR Inten    --      0.2891                 0.2016                 0.6159

                      4                      5                      6
                      A                      A                      A
 Frequencies --     32.1082                39.0529                50.7146
 Red. masses --      4.1102                 5.9658                 5.3685
 Frc consts  --      0.0025                 0.0054                 0.0081
 IR Inten    --      0.0000                 0.0000                 0.0000

                      7                      8                      9
                      A                      A                      A
 Frequencies --     82.0039               111.8038               114.4184
 Red. masses --      5.7219                 4.7644                 5.0392
 Frc consts  --      0.0227                 0.0351                 0.0389
 IR Inten    --      0.3012                 4.6114                 0.0000

                     10                     11                     12
                      A                      A                      A
 Frequencies --    134.0973               160.0432               169.8774
 Red. masses --      5.7687                 4.4051                 5.3567
 Frc consts  --      0.0611                 0.0665                 0.0911
 IR Inten    --      0.0000                 2.7006                 2.8703

                     13                     14                     15
                      A                      A                      A
 Frequencies --    179.0550               207.2951               242.2680
 Red. masses --      6.1907                 4.4078                 6.5244
 Frc consts  --      0.1169                 0.1116                 0.2256
 IR Inten    --      0.0000                 2.7845                 2.9917

                     16                     17                     18
                      A                      A                      A
 Frequencies --    249.4984               262.4367               263.3263
 Red. masses --      3.4061                 3.6509                 3.0908
 Frc consts  --      0.1249                 0.1481                 0.1263
 IR Inten    --      0.0000                 0.0000                32.3942

                     19                     20                     21
                      A                      A                      A
 Frequencies --    296.8174               312.4921               387.2085
 Red. masses --      4.5014                 5.6450                 5.9601
 Frc consts  --      0.2337                 0.3248                 0.5265
 IR Inten    --      0.0000                 2.7432                 0.0000

                     22                     23                     24
                      A                      A                      A
 Frequencies --    390.5376               406.1971               413.5330
 Red. masses --      5.1633                 3.7323                 2.8973
 Frc consts  --      0.4640                 0.3628                 0.2919
 IR Inten    --      1.7486                 5.5293                 0.3530

                     25                     26                     27
                      A                      A                      A
 Frequencies --    413.5589               425.2943               457.2120
 Red. masses --      2.8960                 7.7309                 5.7272
 Frc consts  --      0.2918                 0.8239                 0.7054
 IR Inten    --      0.0001                 0.0000                 0.0000

                     28                     29                     30
                      A                      A                      A
 Frequencies --    478.6382               485.6241               503.4770
 Red. masses --      7.3514                 3.5330                 3.2716
 Frc consts  --      0.9923                 0.4909                 0.4886
 IR Inten    --      0.0000                17.3874                 0.0000

                     31                     32                     33
                      A                      A                      A
 Frequencies --    506.4026               512.3573               526.1300
 Red. masses --      3.9177                 5.1783                 4.7789
 Frc consts  --      0.5919                 0.8009                 0.7794
 IR Inten    --      0.0000                13.3819                11.3671

                     34                     35                     36
                      A                      A                      A
 Frequencies --    535.1641               553.5574               559.5358
 Red. masses --      3.0426                 7.3298                 4.6868
 Frc consts  --      0.5134                 1.3233                 0.8645
 IR Inten    --      0.0000                28.8632                 0.0000

                     37                     38                     39
                      A                      A                      A
 Frequencies --    573.8431               603.0768               621.2894
 Red. masses --      7.1563                 5.9312                 3.8764
 Frc consts  --      1.3884                 1.2710                 0.8816
 IR Inten    --      0.0000                 2.8112                12.4602

                     40                     41                     42
                      A                      A                      A
 Frequencies --    632.1197               633.3628               633.5358
 Red. masses --      6.4783                 5.4323                 6.2007
 Frc consts  --      1.5251                 1.2839                 1.4663
 IR Inten    --      0.0000                 0.0000                 1.2675

                     43                     44                     45
                      A                      A                      A
 Frequencies --    666.2326               680.5515               697.1603
 Red. masses --      3.4538                 4.2391                 5.6271
 Frc consts  --      0.9032                 1.1568                 1.6114
 IR Inten    --      0.0000                 0.2753                19.1318

                     46                     47                     48
                      A                      A                      A
 Frequencies --    702.0939               702.5034               717.3791
 Red. masses --      1.8899                 1.8350                 2.9734
 Frc consts  --      0.5489                 0.5336                 0.9016
 IR Inten    --     64.8449                 0.0000                38.5753

                     49                     50                     51
                      A                      A                      A
 Frequencies --    752.5815               762.8606               769.5966
 Red. masses --      6.7147                 7.1294                 1.7575
 Frc consts  --      2.2407                 2.4445                 0.6133
 IR Inten    --      0.0000                 0.0000                 0.0000

                     52                     53                     54
                      A                      A                      A
 Frequencies --    770.6592               805.6743               809.7833
 Red. masses --      1.7240                 2.4730                 1.8874
 Frc consts  --      0.6033                 0.9458                 0.7292
 IR Inten    --     68.1479                 0.0000                 0.0000

                     55                     56                     57
                      A                      A                      A
 Frequencies --    812.0843               817.2671               857.9885
 Red. masses --      1.5676                 5.2939                 1.2502
 Frc consts  --      0.6091                 2.0833                 0.5422
 IR Inten    --     12.4251                14.2861                 0.2652

                     58                     59                     60
                      A                      A                      A
 Frequencies --    857.9903               864.3911               868.2279
 Red. masses --      1.2516                 2.4198                 2.5941
 Frc consts  --      0.5429                 1.0652                 1.1522
 IR Inten    --      0.0298                 0.0000                56.0173

                     61                     62                     63
                      A                      A                      A
 Frequencies --    887.8755               897.7217               905.7284
 Red. masses --      1.5684                 1.9990                 1.5936
 Frc consts  --      0.7285                 0.9492                 0.7702
 IR Inten    --      1.0727                 0.0000                 0.0000

                     64                     65                     66
                      A                      A                      A
 Frequencies --    906.3414               935.9975               936.1640
 Red. masses --      1.9172                 1.3835                 1.3793
 Frc consts  --      0.9279                 0.7141                 0.7122
 IR Inten    --     71.9288                 5.5377                 0.0000

                     67                     68                     69
                      A                      A                      A
 Frequencies --    981.7036               984.5510               991.2713
 Red. masses --      1.3018                 1.3023                 1.4529
 Frc consts  --      0.7392                 0.7438                 0.8412
 IR Inten    --      0.0288                 0.0000                 0.0000

                     70                     71                     72
                      A                      A                      A
 Frequencies --    991.3522               992.4666               997.9707
 Red. masses --      1.3621                 3.6813                 1.7553
 Frc consts  --      0.7887                 2.1364                 1.0300
 IR Inten    --      0.2943                 0.0000                16.0178

                     73                     74                     75
                      A                      A                      A
 Frequencies --   1002.1332              1007.0824              1009.7182
 Red. masses --      1.4275                 1.6312                 3.9773
 Frc consts  --      0.8446                 0.9747                 2.3891
 IR Inten    --      0.0000                 2.1422                64.4391

                     76                     77                     78
                      A                      A                      A
 Frequencies --   1011.0247              1012.3456              1014.5898
 Red. masses --      6.9732                 1.5360                 6.2023
 Frc consts  --      4.1996                 0.9275                 3.7617
 IR Inten    --      4.3277                 0.0000                 0.0000

                     79                     80                     81
                      A                      A                      A
 Frequencies --   1014.8728              1024.4305              1046.9720
 Red. masses --      6.0342                 2.8644                 2.1408
 Frc consts  --      3.6618                 1.7711                 1.3826
 IR Inten    --      0.2058                 7.0238                 0.0008

                     82                     83                     84
                      A                      A                      A
 Frequencies --   1047.0557              1106.1495              1106.9310
 Red. masses --      2.1327                 1.6003                 1.5875
 Frc consts  --      1.3776                 1.1537                 1.1460
 IR Inten    --     15.8358                 0.0000                11.5579

                     85                     86                     87
                      A                      A                      A
 Frequencies --   1139.4524              1151.3828              1173.0501
 Red. masses --      2.7008                 1.9624                 1.6123
 Frc consts  --      2.0660                 1.5327                 1.3071
 IR Inten    --      0.0000                 0.0000                90.5136

                     88                     89                     90
                      A                      A                      A
 Frequencies --   1188.2714              1189.1142              1191.2431
 Red. masses --      1.4174                 1.2737                 1.1268
 Frc consts  --      1.1792                 1.0612                 0.9421
 IR Inten    --      8.5369                 0.0000                 0.0009

                     91                     92                     93
                      A                      A                      A
 Frequencies --   1191.2736              1202.9686              1203.1739
 Red. masses --      1.1297                 1.1513                 1.1490
 Frc consts  --      0.9446                 0.9816                 0.9800
 IR Inten    --      4.0333                32.6105                 0.0000

                     94                     95                     96
                      A                      A                      A
 Frequencies --   1227.9311              1242.8615              1243.8636
 Red. masses --      1.6476                 2.4568                 2.3627
 Frc consts  --      1.4637                 2.2360                 2.1538
 IR Inten    --      4.0258                 0.0000                47.5139

                     97                     98                     99
                      A                      A                      A
 Frequencies --   1261.7204              1307.3019              1309.3701
 Red. masses --      1.4514                 2.0809                 4.7255
 Frc consts  --      1.3614                 2.0953                 4.7734
 IR Inten    --      0.0000                47.9210                 0.0000

                    100                    101                    102
                      A                      A                      A
 Frequencies --   1327.7183              1329.6294              1342.9144
 Red. masses --      2.8490                 2.9029                 4.0318
 Frc consts  --      2.9590                 3.0238                 4.2839
 IR Inten    --     31.9694                 0.0000                 4.4136

                    103                    104                    105
                      A                      A                      A
 Frequencies --   1354.1356              1354.3161              1356.5911
 Red. masses --      1.9574                 1.8846                 2.8604
 Frc consts  --      2.1148                 2.0366                 3.1016
 IR Inten    --      0.0000                 8.2580                 0.0000

                    106                    107                    108
                      A                      A                      A
 Frequencies --   1393.5766              1403.5485              1408.8302
 Red. masses --      2.6381                 2.9622                 1.5537
 Frc consts  --      3.0186                 3.4382                 1.8169
 IR Inten    --      0.0000                 0.0000                10.7010

                    109                    110                    111
                      A                      A                      A
 Frequencies --   1415.1852              1423.2381              1443.1146
 Red. masses --      1.7739                 2.5554                 5.2369
 Frc consts  --      2.0932                 3.0498                 6.4258
 IR Inten    --      0.0000                 8.5498                 0.0000

                    112                    113                    114
                      A                      A                      A
 Frequencies --   1469.2821              1480.1543              1481.2518
 Red. masses --      3.6577                 2.3635                 2.1918
 Frc consts  --      4.6523                 3.0509                 2.8335
 IR Inten    --     22.4811                19.7731                 0.0000

                    115                    116                    117
                      A                      A                      A
 Frequencies --   1485.4014              1489.6407              1501.1578
 Red. masses --      4.9384                 3.0915                 3.6787
 Frc consts  --      6.4199                 4.0419                 4.8842
 IR Inten    --     13.3936                53.6749                 0.0000

                    118                    119                    120
                      A                      A                      A
 Frequencies --   1523.9976              1524.4310              1593.8528
 Red. masses --      2.2813                 2.2949                 4.4707
 Frc consts  --      3.1217                 3.1422                 6.6915
 IR Inten    --      0.0000                 8.8409                 0.0000

                    121                    122                    123
                      A                      A                      A
 Frequencies --   1613.1555              1614.7856              1615.5842
 Red. masses --      7.3607                 5.4859                 5.7230
 Frc consts  --     11.2856                 8.4280                 8.8011
 IR Inten    --      0.0000                82.4214                 0.0000

                    124                    125                    126
                      A                      A                      A
 Frequencies --   1628.6722              1633.3438              1639.8656
 Red. masses --      5.7390                 6.1112                 5.3656
 Frc consts  --      8.9692                 9.6057                 8.5014
 IR Inten    --    194.6986                49.2681                 0.0000

                    127                    128                    129
                      A                      A                      A
 Frequencies --   1642.5556              1662.0810              1688.2974
 Red. masses --      5.5734                 6.8963                 7.6798
 Frc consts  --      8.8595                11.2246                12.8973
 IR Inten    --     23.0311                 0.0000               315.8974

                    130                    131                    132
                      A                      A                      A
 Frequencies --   1691.0096              2996.6416              2996.6524
 Red. masses --      7.7340                 1.0855                 1.0855
 Frc consts  --     13.0301                 5.7429                 5.7430
 IR Inten    --      0.0000                 6.7192                69.1323

                    133                    134                    135
                      A                      A                      A
 Frequencies --   3154.5292              3154.6237              3154.6266
 Red. masses --      1.0863                 1.0872                 1.0872
 Frc consts  --      6.3692                 6.3749                 6.3749
 IR Inten    --      0.0000                10.2605                 0.2339

                    136                    137                    138
                      A                      A                      A
 Frequencies --   3154.6391              3163.8612              3163.8673
 Red. masses --      1.0863                 1.0877                 1.0877
 Frc consts  --      6.3694                 6.4148                 6.4148
 IR Inten    --      2.2188                 0.0322                 0.0020

                    139                    140                    141
                      A                      A                      A
 Frequencies --   3168.3480              3168.4639              3173.8959
 Red. masses --      1.0901                 1.0902                 1.0955
 Frc consts  --      6.4475                 6.4484                 6.5018
 IR Inten    --      7.6811                 0.0000                36.9462

                    142                    143                    144
                      A                      A                      A
 Frequencies --   3174.1180              3175.3035              3175.3082
 Red. masses --      1.0950                 1.0916                 1.0916
 Frc consts  --      6.5002                 6.4844                 6.4844
 IR Inten    --      0.0005                 7.6301                28.0947

                    145                    146                    147
                      A                      A                      A
 Frequencies --   3178.1773              3178.4699              3187.0410
 Red. masses --      1.0911                 1.0912                 1.0960
 Frc consts  --      6.4936                 6.4953                 6.5591
 IR Inten    --     19.4946                 0.0000                52.7057

                    148                    149                    150
                      A                      A                      A
 Frequencies --   3187.0644              3196.5753              3196.5860
 Red. masses --      1.0960                 1.0947                 1.0948
 Frc consts  --      6.5591                 6.5907                 6.5908
 IR Inten    --      0.1988                19.6178                 0.0079

 - Thermochemistry -
 -------------------
 Temperature   298.150 Kelvin.  Pressure   1.00000 Atm.
 Atom     1 has atomic number  6 and mass  12.00000

 Molecular mass:   408.16265 amu.
 Principal axes and moments of inertia in atomic units:
                           1         2         3
     Eigenvalues --  2510.47718********************
           X            0.08863   0.96928  -0.22942
           Y            0.99364  -0.10210  -0.04748
           Z            0.06945   0.22375   0.97217
 This molecule is an asymmetric top.
 Rotational symmetry number  1.
 Warning -- assumption of classical behavior for rotation
           may cause significant error
 Rotational temperatures (Kelvin)      0.03450     0.00173     0.00167
 Rotational constants (GHZ):           0.71888     0.03612     0.03477
 Zero-point vibrational energy    1075493.7 (Joules/Mol)
                                  257.04917 (Kcal/Mol)
 Warning -- explicit consideration of  38 degrees of freedom as
           vibrations may cause significant error
 Vibrational temperatures:     19.25    38.48    41.52    46.20    56.19
          (Kelvin)             72.97   117.99   160.86   164.62   192.94
                              230.27   244.42   257.62   298.25   348.57
                              358.97   377.59   378.87   427.05   449.61
                              557.11   561.90   584.43   594.98   595.02
                              611.90   657.83   688.65   698.70   724.39
                              728.60   737.17   756.98   769.98   796.45
                              805.05   825.63   867.69   893.90   909.48
                              911.27   911.52   958.56   979.16  1003.06
                             1010.16  1010.75  1032.15  1082.80  1097.59
                             1107.28  1108.81  1159.19  1165.10  1168.41
                             1175.87  1234.45  1234.46  1243.67  1249.19
                             1277.45  1291.62  1303.14  1304.02  1346.69
                             1346.93  1412.45  1416.55  1426.22  1426.33
                             1427.94  1435.86  1441.85  1448.97  1452.76
                             1454.64  1456.54  1459.77  1460.18  1473.93
                             1506.36  1506.48  1591.50  1592.63  1639.42
                             1656.58  1687.76  1709.66  1710.87  1713.93
                             1713.98  1730.80  1731.10  1766.72  1788.20
                             1789.64  1815.33  1880.92  1883.89  1910.29
                             1913.04  1932.15  1948.30  1948.56  1951.83
                             2005.05  2019.39  2026.99  2036.14  2047.72
                             2076.32  2113.97  2129.61  2131.19  2137.16
                             2143.26  2159.83  2192.69  2193.32  2293.20
                             2320.97  2323.32  2324.47  2343.30  2350.02
                             2359.40  2363.27  2391.36  2429.08  2432.99
                             4311.50  4311.51  4538.66  4538.80  4538.80
                             4538.82  4552.09  4552.10  4558.55  4558.71
                             4566.53  4566.85  4568.55  4568.56  4572.69
                             4573.11  4585.44  4585.47  4599.16  4599.17

 Zero-point correction=                           0.409634 (Hartree/Particle)
 Thermal correction to Energy=                    0.433539
 Thermal correction to Enthalpy=                  0.434483
 Thermal correction to Gibbs Free Energy=         0.353451
 Sum of electronic and zero-point Energies=          -1264.715830
 Sum of electronic and thermal Energies=             -1264.691925
 Sum of electronic and thermal Enthalpies=           -1264.690981
 Sum of electronic and thermal Free Energies=        -1264.772012

                     E (Thermal)             CV                S
                      KCal/Mol        Cal/Mol-Kelvin    Cal/Mol-Kelvin
 Total                  272.050             97.855            170.545
 Electronic               0.000              0.000              0.000
 Translational            0.889              2.981             43.910
 Rotational               0.889              2.981             37.118
 Vibrational            270.272             91.894             89.516
 Vibration     1          0.593              1.987              7.433
 Vibration     2          0.593              1.984              6.057
 Vibration     3          0.593              1.984              5.906
 Vibration     4          0.594              1.983              5.695
 Vibration     5          0.594              1.981              5.307
 Vibration     6          0.595              1.977              4.789
 Vibration     7          0.600              1.961              3.842
 Vibration     8          0.607              1.940              3.237
 Vibration     9          0.607              1.937              3.193
 Vibration    10          0.613              1.919              2.886
 Vibration    11          0.622              1.891              2.549
 Vibration    12          0.625              1.880              2.437
 Vibration    13          0.629              1.868              2.338
 Vibration    14          0.641              1.829              2.067
 Vibration    15          0.658              1.776              1.786
 Vibration    16          0.662              1.764              1.734
 Vibration    17          0.670              1.742              1.646
 Vibration    18          0.670              1.740              1.640
 Vibration    19          0.690              1.680              1.435
 Vibration    20          0.701              1.650              1.349
 Vibration    21          0.756              1.498              1.011
 Vibration    22          0.758              1.490              0.998
 Vibration    23          0.771              1.457              0.940
 Vibration    24          0.777              1.441              0.914
 Vibration    25          0.777              1.441              0.914
 Vibration    26          0.787              1.415              0.874
 Vibration    27          0.815              1.345              0.774
 Vibration    28          0.835              1.297              0.714
 Vibration    29          0.842              1.282              0.695
 Vibration    30          0.859              1.242              0.649
 Vibration    31          0.862              1.236              0.642
 Vibration    32          0.867              1.223              0.628
 Vibration    33          0.881              1.192              0.596
 Vibration    34          0.890              1.172              0.576
 Vibration    35          0.909              1.132              0.537
 Vibration    36          0.915              1.119              0.525
 Vibration    37          0.930              1.088              0.497
 Vibration    38          0.961              1.025              0.444

 Normal termination of Gaussian 16 at Sun Oct 18 10:06:04 2020.
