 Gaussian 16, Revision C.01,
 Gaussian 16:  ES64L-G16RevC.01  3-Jul-2019

 --------------------------------------------------------------------
 #P B3LYP/6-311++G(d,p) EmpiricalDispersion=GD3 freq(noraman) SCF=YQC
 --------------------------------------------------------------------

 -----------------------------------
 Restart from TPG_Aldehyde_Imine.log
 -----------------------------------
 Symbolic Z-matrix:
 Charge =  0 Multiplicity = 1

                         Standard orientation:
 ---------------------------------------------------------------------
 Center     Atomic      Atomic             Coordinates (Angstroms)
 Number     Number       Type             X           Y           Z
 ---------------------------------------------------------------------
      1          6           0       -1.088184   -0.923518   -0.051750
      2          6           0        0.253516   -1.383860   -0.053363
      3          8           0        0.516363   -2.686182   -0.055417
      4          6           0        1.343964   -0.480744   -0.051886
      5          6           0        1.071775    0.911373   -0.053372
      6          8           0        2.068189    1.790192   -0.055398
      7          6           0       -0.255564    1.404175   -0.051781
      8          6           0       -1.325080    0.472393   -0.053194
      9          8           0       -2.584350    0.895914   -0.055081
     10          1           0        2.934988    1.263047   -0.061569
     11          1           0       -2.561105    1.910174   -0.061320
     12          1           0       -0.373598   -3.173260   -0.061639
     13          6           0       -5.142250   -5.929832    0.069648
     14          6           0       -3.979615   -6.182307   -0.659664
     15          6           0       -5.263371   -4.735022    0.778475
     16          6           0       -4.239853   -3.791722    0.751912
     17          6           0       -3.078088   -4.033777    0.003104
     18          6           0       -2.949860   -5.247841   -0.685147
     19          6           0       -2.194505   -1.848520   -0.051275
     20          7           0       -2.002810   -3.127679   -0.055836
     21          1           0       -3.872758   -7.112494   -1.206317
     22          1           0       -6.153538   -4.540664    1.366359
     23          1           0       -4.326907   -2.881932    1.334561
     24          1           0       -2.041784   -5.435934   -1.246261
     25          1           0       -3.197203   -1.418533   -0.061693
     26          1           0       -5.940035   -6.662906    0.096395
     27          6           0        7.706656   -1.488080    0.069855
     28          6           0        7.343988   -0.354851   -0.659270
     29          6           0        6.732444   -2.190678    0.778350
     30          6           0        5.403719   -1.776073    0.751660
     31          6           0        5.032486   -0.648774    0.003080
     32          6           0        6.019802    0.069572   -0.684873
     33          6           0        2.698221   -0.976303   -0.051515
     34          7           0        3.710116   -0.170668   -0.055858
     35          1           0        8.096156    0.202985   -1.205673
     36          1           0        7.009209   -3.058879    1.366063
     37          1           0        4.659271   -2.306587    1.334017
     38          1           0        5.728644    0.950138   -1.245821
     39          1           0        2.827267   -2.059647   -0.062144
     40          1           0        8.740444   -1.812328    0.096696
     41          6           0       -2.564770    7.418070    0.069607
     42          6           0       -3.365114    6.537156   -0.658950
     43          6           0       -1.468819    6.925899    0.777671
     44          6           0       -1.163413    5.567910    0.751108
     45          6           0       -1.954368    4.682524    0.003119
     46          6           0       -3.070490    5.178179   -0.684407
     47          6           0       -0.503533    2.824774   -0.051383
     48          7           0       -1.707195    3.298269   -0.055647
     49          1           0       -4.224598    6.909449   -1.205009
     50          1           0       -0.855078    7.599856    1.364938
     51          1           0       -0.331411    5.188674    1.333127
     52          1           0       -3.687739    4.485586   -1.244897
     53          1           0        0.370147    3.478202   -0.062160
     54          1           0       -2.800921    8.475468    0.096340
 ---------------------------------------------------------------------

 SCF Done:  E(RB3LYP) =  -1431.90163175     a.u. after    6 cycles
 SCF Done:  E(RB3LYP) =  -1431.90166585     A.U. after   10 cycles

 The electronic state is 1-A.
 Alpha  occ. eigenvalues --  -19.15907 -19.15906 -19.15906 -14.33229 -14.33229
 Alpha  occ. eigenvalues --  -14.33229 -10.27402 -10.27402 -10.27401 -10.23939
 Alpha  occ. eigenvalues --  -10.23939 -10.23939 -10.22055 -10.22055 -10.22055
 Alpha  occ. eigenvalues --  -10.19438 -10.19438 -10.19437 -10.18530 -10.18530
 Alpha  occ. eigenvalues --  -10.18529 -10.18453 -10.18453 -10.18453 -10.18427
 Alpha  occ. eigenvalues --  -10.18427 -10.18427 -10.18188 -10.18187 -10.18187
 Alpha  occ. eigenvalues --  -10.18159 -10.18159 -10.18159  -1.08694  -1.08227
 Alpha  occ. eigenvalues --   -1.08227  -0.95604  -0.95604  -0.95442  -0.87351
 Alpha  occ. eigenvalues --   -0.86229  -0.86229  -0.85612  -0.79728  -0.79728
 Alpha  occ. eigenvalues --   -0.76185  -0.75929  -0.75928  -0.75747  -0.74464
 Alpha  occ. eigenvalues --   -0.74464  -0.67325  -0.67239  -0.67238  -0.63074
 Alpha  occ. eigenvalues --   -0.63074  -0.62648  -0.61879  -0.61345  -0.61345
 Alpha  occ. eigenvalues --   -0.58371  -0.58363  -0.58363  -0.54902  -0.54781
 Alpha  occ. eigenvalues --   -0.54781  -0.52578  -0.50526  -0.50525  -0.50015
 Alpha  occ. eigenvalues --   -0.48806  -0.48805  -0.47426  -0.47152  -0.47152
 Alpha  occ. eigenvalues --   -0.46954  -0.45906  -0.45460  -0.45460  -0.44754
 Alpha  occ. eigenvalues --   -0.44140  -0.44139  -0.43370  -0.43370  -0.43328
 Alpha  occ. eigenvalues --   -0.42178  -0.42177  -0.40886  -0.40885  -0.39639
 Alpha  occ. eigenvalues --   -0.38881  -0.38880  -0.38751  -0.37396  -0.37396
 Alpha  occ. eigenvalues --   -0.37284  -0.36281  -0.36281  -0.36259  -0.35242
 Alpha  occ. eigenvalues --   -0.35242  -0.34863  -0.31147  -0.29667  -0.29629
 Alpha  occ. eigenvalues --   -0.29628  -0.26712  -0.26712  -0.26642  -0.26423
 Alpha  occ. eigenvalues --   -0.26423  -0.24605  -0.22375  -0.22375
 Alpha virt. eigenvalues --   -0.07317  -0.07316  -0.06991  -0.02358  -0.02352
 Alpha virt. eigenvalues --   -0.02352  -0.00990  -0.00765  -0.00765  -0.00518
 Alpha virt. eigenvalues --   -0.00518   0.00051   0.00526   0.00651   0.00651

 Mulliken charges:
               1
     1  C    0.587819
     2  C   -1.047076
     3  O   -0.350585
     4  C    0.588518
     5  C   -1.047139
     6  O   -0.350541
     7  C    0.588377
     8  C   -1.047221
     9  O   -0.350600
    10  H    0.579647
    11  H    0.579796
    12  H    0.579707
    13  C   -0.425088
    14  C   -0.165200
    15  C   -0.093080
    16  C    0.063914
    17  C   -0.214270
    18  C   -0.023759
    19  C    0.111621
    20  N   -0.005794
    21  H    0.180756
    22  H    0.181226
    23  H    0.154640
    24  H    0.150753
    25  H    0.164255
    26  H    0.149635
    27  C   -0.425132
    28  C   -0.165191
    29  C   -0.093213
    30  C    0.063865
    31  C   -0.214071
    32  C   -0.023682
    33  C    0.111576
    34  N   -0.005752
    35  H    0.180753
    36  H    0.181228
    37  H    0.154641
    38  H    0.150755
    39  H    0.164268
    40  H    0.149638
    41  C   -0.425136
    42  C   -0.165354
    43  C   -0.093260
    44  C    0.064227
    45  C   -0.213765
    46  C   -0.023936
    47  C    0.111855
    48  N   -0.005866
    49  H    0.180757
    50  H    0.181230
    51  H    0.154615
    52  H    0.150742
    53  H    0.164260
    54  H    0.149638
 Sum of Mulliken charges =   0.00000

 Dipole moment (field-independent basis, Debye):
    X=              0.0002    Y=              0.0005    Z=              0.1805  Tot=              0.1805
 Quadrupole moment (field-independent basis, Debye-Ang):
   XX=           -173.3057   YY=           -173.3088   ZZ=           -194.5614
   XY=              0.0014   XZ=             -0.0003   YZ=             -0.0001

  Exact polarizability:     571.818      -0.003     571.801      -0.006       0.005     209.848
 Approx polarizability:     785.316       0.002     785.290      -0.015       0.011     354.096

                      1                      2                      3
                      A                      A                      A
 Frequencies --     20.7269                26.9238                27.5660
 Red. masses --      6.4379                 4.0661                 4.0752
 Frc consts  --      0.0016                 0.0017                 0.0018
 IR Inten    --      0.4957                 0.2193                 0.2255

                      4                      5                      6
                      A                      A                      A
 Frequencies --     32.8714                35.3886                35.4833
 Red. masses --      3.7306                 5.6457                 5.6359
 Frc consts  --      0.0024                 0.0042                 0.0042
 IR Inten    --      0.0073                 0.4449                 0.4378

                      7                      8                      9
                      A                      A                      A
 Frequencies --     55.1264                55.2357                80.8442
 Red. masses --      6.0083                 6.0010                 5.4907
 Frc consts  --      0.0108                 0.0108                 0.0211
 IR Inten    --      0.1616                 0.1605                 0.3604

                     10                     11                     12
                      A                      A                      A
 Frequencies --    110.5112               110.5795               130.6476
 Red. masses --      6.9435                 6.9573                 6.4504
 Frc consts  --      0.0500                 0.0501                 0.0649
 IR Inten    --      0.3730                 0.3740                 0.2332

                     13                     14                     15
                      A                      A                      A
 Frequencies --    163.6920               163.7180               171.3891
 Red. masses --      5.3909                 5.3895                 7.0597
 Frc consts  --      0.0851                 0.0851                 0.1222
 IR Inten    --      1.4671                 1.4669                 0.1739

                     16                     17                     18
                      A                      A                      A
 Frequencies --    198.2674               228.2760               228.4452
 Red. masses --      6.5566                 4.7348                 4.7417
 Frc consts  --      0.1519                 0.1454                 0.1458
 IR Inten    --      5.7920                 0.7035                 0.7073

                     19                     20                     21
                      A                      A                      A
 Frequencies --    251.7261               251.7594               256.4871
 Red. masses --      5.5977                 5.5961                 5.0378
 Frc consts  --      0.2090                 0.2090                 0.1953
 IR Inten    --      1.4345                 1.4296                 0.3377

                     22                     23                     24
                      A                      A                      A
 Frequencies --    306.4748               306.5981               320.2144
 Red. masses --      4.8431                 4.8418                 3.1808
 Frc consts  --      0.2680                 0.2682                 0.1922
 IR Inten    --      0.0040                 0.0045                10.8412

                     25                     26                     27
                      A                      A                      A
 Frequencies --    358.9302               411.0245               411.1613
 Red. masses --      5.4207                 4.5143                 4.5123
 Frc consts  --      0.4115                 0.4493                 0.4494
 IR Inten    --      0.0040                 7.1755                 7.2740

                     28                     29                     30
                      A                      A                      A
 Frequencies --    420.2526               420.2953               420.7451
 Red. masses --      3.0340                 3.0350                 2.9486
 Frc consts  --      0.3157                 0.3159                 0.3075
 IR Inten    --      0.9977                 0.9965                 0.0652

                     31                     32                     33
                      A                      A                      A
 Frequencies --    435.7418               435.8418               494.9799
 Red. masses --      5.6292                 5.6247                 7.7699
 Frc consts  --      0.6297                 0.6295                 1.1216
 IR Inten    --     44.3156                44.1726                31.7436

                     34                     35                     36
                      A                      A                      A
 Frequencies --    495.0024               496.3751               508.7494
 Red. masses --      7.7742                 5.5845                 6.5193
 Frc consts  --      1.1223                 0.8107                 0.9942
 IR Inten    --     31.9457                 0.2483                22.8163

                     37                     38                     39
                      A                      A                      A
 Frequencies --    508.7837               536.3073               542.3056
 Red. masses --      6.5184                 3.3949                 3.4251
 Frc consts  --      0.9942                 0.5753                 0.5935
 IR Inten    --     22.7153                14.6482                 1.7635

                     40                     41                     42
                      A                      A                      A
 Frequencies --    542.3373               571.1811               619.2731
 Red. masses --      3.4252                 8.1683                10.8028
 Frc consts  --      0.5936                 1.5701                 2.4409
 IR Inten    --      1.7561                 0.0034                 0.0075

                     43                     44                     45
                      A                      A                      A
 Frequencies --    631.5477               631.7657               631.7819
 Red. masses --      6.4811                 6.4854                 6.4854
 Frc consts  --      1.5230                 1.5251                 1.5252
 IR Inten    --      0.0089                 0.0962                 0.0960

                     46                     47                     48
                      A                      A                      A
 Frequencies --    662.9911               662.9959               699.7909
 Red. masses --      6.3822                 6.3813                 4.8097
 Frc consts  --      1.6529                 1.6526                 1.3877
 IR Inten    --      4.9777                 4.9834                 0.8753

                     49                     50                     51
                      A                      A                      A
 Frequencies --    704.1674               704.2307               704.8258
 Red. masses --      1.9463                 1.9476                 1.7548
 Frc consts  --      0.5686                 0.5691                 0.5136
 IR Inten    --     15.8534                15.7739                70.9432

                     52                     53                     54
                      A                      A                      A
 Frequencies --    716.6165               716.6702               763.3086
 Red. masses --      6.1495                 6.1592                 4.5310
 Frc consts  --      1.8606                 1.8638                 1.5554
 IR Inten    --      6.4863                 6.4717                59.7687

                     55                     56                     57
                      A                      A                      A
 Frequencies --    776.7472               776.7647               783.1857
 Red. masses --      1.9529                 1.9526                 2.4706
 Frc consts  --      0.6942                 0.6941                 0.8929
 IR Inten    --     24.9102                24.9474                30.7416

                     58                     59                     60
                      A                      A                      A
 Frequencies --    804.2976               842.8299               842.9017
 Red. masses --      6.4776                 1.2490                 1.2488
 Frc consts  --      2.4689                 0.5227                 0.5228
 IR Inten    --      0.4088                 0.6815                 0.6936

                     61                     62                     63
                      A                      A                      A
 Frequencies --    843.2782               869.0208               869.0373
 Red. masses --      1.2555                 5.4484                 5.4471
 Frc consts  --      0.5260                 2.4242                 2.4238
 IR Inten    --      0.4012                43.8589                43.8406

                     64                     65                     66
                      A                      A                      A
 Frequencies --    915.1422               920.9434               921.0029
 Red. masses --      1.6480                 1.5106                 1.5106
 Frc consts  --      0.8132                 0.7549                 0.7550
 IR Inten    --      2.6370                 2.8990                 2.9187

                     67                     68                     69
                      A                      A                      A
 Frequencies --    945.1976               980.6399               980.7267
 Red. masses --      3.9003                 1.2910                 1.3270
 Frc consts  --      2.0530                 0.7315                 0.7520
 IR Inten    --      2.5050                 0.3876                 0.3187

                     70                     71                     72
                      A                      A                      A
 Frequencies --    980.8527               981.3977               981.7256
 Red. masses --      1.3628                 1.1469                 1.1197
 Frc consts  --      0.7725                 0.6508                 0.6358
 IR Inten    --      0.5091                 0.6004                 1.1567

                     73                     74                     75
                      A                      A                      A
 Frequencies --    984.5157               998.4510               998.4633
 Red. masses --      1.0978                 1.2996                 1.2996
 Frc consts  --      0.6269                 0.7633                 0.7633
 IR Inten    --    174.6951                 0.0227                 0.0212

                     76                     77                     78
                      A                      A                      A
 Frequencies --    998.6011              1007.5339              1008.0525
 Red. masses --      1.2980                 2.1671                 2.3169
 Frc consts  --      0.7626                 1.2961                 1.3871
 IR Inten    --      1.2793                21.4256                 7.0346

                     79                     80                     81
                      A                      A                      A
 Frequencies --   1008.0897              1015.2960              1015.3464
 Red. masses --      2.3334                 2.7297                 2.7018
 Frc consts  --      1.3971                 1.6579                 1.6411
 IR Inten    --      7.0964                 1.7838                 1.7923

                     82                     83                     84
                      A                      A                      A
 Frequencies --   1017.2642              1026.4248              1026.4573
 Red. masses --      2.5656                 3.9070                 3.9106
 Frc consts  --      1.5643                 2.4252                 2.4276
 IR Inten    --     12.7379                33.4998                33.5535

                     85                     86                     87
                      A                      A                      A
 Frequencies --   1047.1396              1047.9191              1047.9488
 Red. masses --      2.1169                 2.1303                 2.1305
 Frc consts  --      1.3676                 1.3783                 1.3785
 IR Inten    --      0.0129                 9.2157                 9.2070

                     88                     89                     90
                      A                      A                      A
 Frequencies --   1108.2830              1108.3286              1108.4113
 Red. masses --      1.5420                 1.5422                 1.5413
 Frc consts  --      1.1159                 1.1162                 1.1157
 IR Inten    --      8.3902                 7.6321                 6.6685

                     91                     92                     93
                      A                      A                      A
 Frequencies --   1189.2252              1189.2351              1189.3111
 Red. masses --      1.1393                 1.1396                 1.1268
 Frc consts  --      0.9493                 0.9496                 0.9390
 IR Inten    --      7.1828                 7.2721                 0.0880

                     94                     95                     96
                      A                      A                      A
 Frequencies --   1201.4114              1201.5053              1202.6385
 Red. masses --      1.5383                 1.5484                 1.2089
 Frc consts  --      1.3082                 1.3170                 1.0302
 IR Inten    --     94.6030                96.2608                 0.6965

                     97                     98                     99
                      A                      A                      A
 Frequencies --   1208.3260              1208.3296              1231.5399
 Red. masses --      2.5402                 2.5160                 3.5201
 Frc consts  --      2.1852                 2.1643                 3.1456
 IR Inten    --    155.2036               153.7173                 0.0012

                    100                    101                    102
                      A                      A                      A
 Frequencies --   1253.0417              1253.0518              1305.0424
 Red. masses --      3.9033                 3.9024                 2.3521
 Frc consts  --      3.6109                 3.6101                 2.3603
 IR Inten    --      4.9719                 4.9397                 0.0013

                    103                    104                    105
                      A                      A                      A
 Frequencies --   1320.4929              1320.5411              1320.8392
 Red. masses --      3.5170                 3.5260                 3.7356
 Frc consts  --      3.6132                 3.6227                 3.8398
 IR Inten    --      9.4404                 9.3101                 0.1915

                    106                    107                    108
                      A                      A                      A
 Frequencies --   1349.6456              1353.3461              1353.4181
 Red. masses --      5.6387                 1.6116                 1.6089
 Frc consts  --      6.0516                 1.7391                 1.7364
 IR Inten    --      0.0109                11.9047                12.0549

                    109                    110                    111
                      A                      A                      A
 Frequencies --   1354.1917              1380.6364              1380.7627
 Red. masses --      1.7628                 1.6734                 1.6734
 Frc consts  --      1.9046                 1.8794                 1.8797
 IR Inten    --      0.0523               210.9678               211.0212

                    112                    113                    114
                      A                      A                      A
 Frequencies --   1403.8744              1422.7137              1422.7786
 Red. masses --      2.8577                 2.8121                 2.8098
 Frc consts  --      3.3184                 3.3537                 3.3511
 IR Inten    --      0.0333                21.8441                22.1667

                    115                    116                    117
                      A                      A                      A
 Frequencies --   1444.4016              1480.8541              1480.8986
 Red. masses --      4.0545                 2.2650                 2.2655
 Frc consts  --      4.9839                 2.9265                 2.9273
 IR Inten    --      0.1672                 7.0622                 7.1887

                    118                    119                    120
                      A                      A                      A
 Frequencies --   1482.9233              1504.0798              1504.1761
 Red. masses --      2.3410                 2.8770                 2.8758
 Frc consts  --      3.0331                 3.8347                 3.8337
 IR Inten    --      2.7633               229.8550               229.0980

                    121                    122                    123
                      A                      A                      A
 Frequencies --   1520.9866              1522.4777              1522.5180
 Red. masses --      2.2472                 2.3917                 2.3930
 Frc consts  --      3.0630                 3.2663                 3.2682
 IR Inten    --      0.2413               319.5287               319.8479

                    124                    125                    126
                      A                      A                      A
 Frequencies --   1575.1146              1613.6940              1613.7232
 Red. masses --      1.2494                 4.5475                 4.5439
 Frc consts  --      1.8263                 6.9770                 6.9717
 IR Inten    --      0.3252               830.9038               837.8612

                    127                    128                    129
                      A                      A                      A
 Frequencies --   1615.2523              1615.2802              1615.5424
 Red. masses --      5.3803                 5.3847                 5.3235
 Frc consts  --      8.2706                 8.2776                 8.1862
 IR Inten    --    203.9837               197.6253                 4.2848

                    130                    131                    132
                      A                      A                      A
 Frequencies --   1630.0863              1649.4827              1649.4972
 Red. masses --      5.3105                 4.9287                 4.9274
 Frc consts  --      8.3139                 7.9009                 7.8989
 IR Inten    --      0.0561               152.9705               153.8074

                    133                    134                    135
                      A                      A                      A
 Frequencies --   1656.5543              1681.0963              1681.2842
 Red. masses --      6.0323                 2.6178                 2.6124
 Frc consts  --      9.7531                 4.3589                 4.3509
 IR Inten    --      0.0111               610.2706               609.6037

                    136                    137                    138
                      A                      A                      A
 Frequencies --   2797.4989              2811.9366              2812.1451
 Red. masses --      1.0777                 1.0774                 1.0774
 Frc consts  --      4.9691                 5.0190                 5.0198
 IR Inten    --      0.2490              1874.5799              1874.3549

                    139                    140                    141
                      A                      A                      A
 Frequencies --   3100.5551              3100.6335              3100.9713
 Red. masses --      1.0887                 1.0887                 1.0887
 Frc consts  --      6.1666                 6.1669                 6.1680
 IR Inten    --     12.7658                12.6485                 0.5387

                    142                    143                    144
                      A                      A                      A
 Frequencies --   3160.8010              3160.8121              3160.8375
 Red. masses --      1.0854                 1.0854                 1.0854
 Frc consts  --      6.3891                 6.3891                 6.3893
 IR Inten    --      6.5092                 6.6732                 0.3884

                    145                    146                    147
                      A                      A                      A
 Frequencies --   3168.0590              3168.0925              3168.0964
 Red. masses --      1.0880                 1.0880                 1.0880
 Frc consts  --      6.4339                 6.4341                 6.4341
 IR Inten    --      3.1770                 3.2133                 3.2231

                    148                    149                    150
                      A                      A                      A
 Frequencies --   3178.4295              3178.4614              3178.5135
 Red. masses --      1.0912                 1.0912                 1.0912
 Frc consts  --      6.4952                 6.4953                 6.4955
 IR Inten    --     11.8467                10.4785                 9.6616

                    151                    152                    153
                      A                      A                      A
 Frequencies --   3184.1725              3184.2096              3184.2344
 Red. masses --      1.0945                 1.0945                 1.0945
 Frc consts  --      6.5380                 6.5381                 6.5382
 IR Inten    --     17.4304                17.1102                16.6106

                    154                    155                    156
                      A                      A                      A
 Frequencies --   3191.8240              3191.8396              3191.8876
 Red. masses --      1.0982                 1.0982                 1.0982
 Frc consts  --      6.5920                 6.5920                 6.5922
 IR Inten    --     24.4687                24.8719                 0.7450

 - Thermochemistry -
 -------------------
 Temperature   298.150 Kelvin.  Pressure   1.00000 Atm.
 Atom     1 has atomic number  6 and mass  12.00000

 Molecular mass:   435.15829 amu.
 Principal axes and moments of inertia in atomic units:
                           1         2         3
     Eigenvalues --  ******************************
           X            0.99997   0.00726  -0.00000
           Y           -0.00726   0.99997  -0.00000
           Z            0.00000   0.00000   1.00000
 This molecule is an asymmetric top.
 Rotational symmetry number  1.
 Warning -- assumption of classical behavior for rotation
           may cause significant error
 Rotational temperatures (Kelvin)      0.00411     0.00411     0.00209
 Rotational constants (GHZ):           0.08564     0.08563     0.04352
 Zero-point vibrational energy    1103357.6 (Joules/Mol)
                                  263.70879 (Kcal/Mol)
 Warning -- explicit consideration of  42 degrees of freedom as
           vibrations may cause significant error
 Vibrational temperatures:     29.82    38.74    39.66    47.29    50.92
          (Kelvin)             51.05    79.31    79.47   116.32   159.00
                              159.10   187.97   235.52   235.55   246.59
                              285.26   328.44   328.68   362.18   362.23
                              369.03   440.95   441.13   460.72   516.42
                              591.37   591.57   604.65   604.71   605.36
                              626.94   627.08   712.17   712.20   714.17
                              731.98   732.03   771.63   780.26   780.30
                              821.80   891.00   908.66   908.97   908.99
                              953.90   953.90  1006.84  1013.14  1013.23
                             1014.09  1031.05  1031.13  1098.23  1117.57
                             1117.59  1126.83  1157.20  1212.64  1212.75
                             1213.29  1250.33  1250.35  1316.69  1325.03
                             1325.12  1359.93  1410.92  1411.05  1411.23
                             1412.01  1412.48  1416.50  1436.55  1436.57
                             1436.76  1449.62  1450.36  1450.42  1460.78
                             1460.86  1463.62  1476.80  1476.84  1506.60
                             1507.72  1507.76  1594.57  1594.64  1594.76
                             1711.03  1711.04  1711.15  1728.56  1728.70
                             1730.33  1738.51  1738.52  1771.91  1802.85
                             1802.86  1877.66  1899.89  1899.96  1900.39
                             1941.84  1947.16  1947.27  1948.38  1986.43
                             1986.61  2019.86  2046.97  2047.06  2078.17
                             2130.62  2130.68  2133.60  2164.04  2164.17
                             2188.36  2190.51  2190.56  2266.24  2321.75
                             2321.79  2323.99  2324.03  2324.41  2345.33
                             2373.24  2373.26  2383.41  2418.72  2418.99
                             4024.98  4045.75  4046.05  4461.01  4461.12
                             4461.61  4547.69  4547.70  4547.74  4558.13
                             4558.18  4558.18  4573.05  4573.10  4573.17
                             4581.31  4581.37  4581.40  4592.32  4592.35
                             4592.41

 Zero-point correction=                           0.420247 (Hartree/Particle)
 Thermal correction to Energy=                    0.446832
 Thermal correction to Enthalpy=                  0.447776
 Thermal correction to Gibbs Free Energy=         0.359921
 Sum of electronic and zero-point Energies=          -1431.481419
 Sum of electronic and thermal Energies=             -1431.454834
 Sum of electronic and thermal Enthalpies=           -1431.453890
 Sum of electronic and thermal Free Energies=        -1431.541745

                     E (Thermal)             CV                S
                      KCal/Mol        Cal/Mol-Kelvin    Cal/Mol-Kelvin
 Total                  280.391            105.144            184.907
 Electronic               0.000              0.000              0.000
 Translational            0.889              2.981             44.101
 Rotational               0.889              2.981             38.152
 Vibrational            278.614             99.182            102.654
 Vibration     1          0.593              1.986              6.563
 Vibration     2          0.593              1.984              6.044
 Vibration     3          0.593              1.984              5.997
 Vibration     4          0.594              1.983              5.648
 Vibration     5          0.594              1.982              5.502
 Vibration     6          0.594              1.982              5.497
 Vibration     7          0.596              1.976              4.624
 Vibration     8          0.596              1.975              4.621
 Vibration     9          0.600              1.962              3.870
 Vibration    10          0.606              1.941              3.260
 Vibration    11          0.606              1.941              3.259
 Vibration    12          0.612              1.923              2.936
 Vibration    13          0.623              1.887              2.507
 Vibration    14          0.623              1.887              2.506
 Vibration    15          0.626              1.878              2.420
 Vibration    16          0.637              1.842              2.149
 Vibration    17          0.651              1.798              1.892
 Vibration    18          0.651              1.798              1.891
 Vibration    19          0.664              1.760              1.718
 Vibration    20          0.664              1.760              1.718
 Vibration    21          0.666              1.752              1.686
 Vibration    22          0.697              1.661              1.381
 Vibration    23          0.697              1.661              1.381
 Vibration    24          0.706              1.635              1.309
 Vibration    25          0.734              1.557              1.127
 Vibration    26          0.775              1.446              0.923
 Vibration    27          0.775              1.446              0.923
 Vibration    28          0.783              1.426              0.891
 Vibration    29          0.783              1.426              0.891
 Vibration    30          0.783              1.425              0.889
 Vibration    31          0.796              1.392              0.840
 Vibration    32          0.796              1.392              0.840
 Vibration    33          0.851              1.261              0.671
 Vibration    34          0.851              1.261              0.671
 Vibration    35          0.852              1.258              0.667
 Vibration    36          0.864              1.231              0.637
 Vibration    37          0.864              1.231              0.637
 Vibration    38          0.891              1.170              0.573
 Vibration    39          0.897              1.157              0.560
 Vibration    40          0.897              1.156              0.560
 Vibration    41          0.927              1.094              0.502
 Vibration    42          0.979              0.991              0.418

 Normal termination of Gaussian 16 at Fri Aug  7 00:16:29 2020.
