 Gaussian 16, Revision C.01,
 Gaussian 16:  ES64L-G16RevC.01  3-Jul-2019

 ----------------------------------------------------------------------
 #P B3LYP/6-311++G(d,p) EmpiricalDispersion=GD3 freq(noraman) SCF=YQC N
 oSymm
 ----------------------------------------------------------------------

 --------------------------------------------------
 Restart from BiPhenyl_Aldehyde_Benzobisoxazole.log
 --------------------------------------------------
 Symbolic Z-matrix:
 Charge =  0 Multiplicity = 1

                          Input orientation:
 ---------------------------------------------------------------------
 Center     Atomic      Atomic             Coordinates (Angstroms)
 Number     Number       Type             X           Y           Z
 ---------------------------------------------------------------------
      1          6           0        0.111011    3.558145   -0.112965
      2          6           0        1.227761    2.812683   -0.518929
      3          6           0        1.180354    1.427391   -0.517959
      4          6           0        0.022706    0.739713   -0.115771
      5          6           0       -1.088644    1.495887    0.286865
      6          6           0       -1.049184    2.883705    0.290733
      7          6           0       -0.022706   -0.739714   -0.115771
      8          6           0       -1.180354   -1.427393   -0.517959
      9          6           0       -1.227761   -2.812684   -0.518928
     10          6           0       -0.111011   -3.558146   -0.112965
     11          6           0        1.049184   -2.883706    0.290733
     12          6           0        1.088644   -1.495888    0.286865
     13          1           0       -2.120081   -3.335094   -0.840397
     14          1           0       -1.912845    3.450145    0.614971
     15          1           0        1.912845   -3.450146    0.614971
     16          1           0        2.120081    3.335093   -0.840398
     17          1           0       -2.043164   -0.867217   -0.858845
     18          1           0       -1.985093    0.990398    0.626302
     19          1           0        2.043164    0.867216   -0.858846
     20          1           0        1.985093   -0.990399    0.626302
     21          1           0       -1.256018   10.288057    0.452697
     22          6           0       -0.714680    9.371414    0.250257
     23          6           0        0.609365    9.444176   -0.216695
     24          1           0        1.060880   10.418283   -0.364380
     25          6           0        1.350969    8.298369   -0.492776
     26          1           0        2.370933    8.349583   -0.852645
     27          6           0        0.726898    7.066869   -0.287280
     28          7           0        1.179189    5.763446   -0.462965
     29          6           0       -0.593207    7.022668    0.178627
     30          8           0       -0.946948    5.702730    0.287206
     31          6           0       -1.350120    8.146271    0.459825
     32          1           0       -2.368805    8.077199    0.818879
     33          6           0        0.178576    5.012663   -0.118868
     34          1           0        1.256018  -10.288058    0.452698
     35          6           0        0.714680   -9.371415    0.250258
     36          6           0       -0.609365   -9.444178   -0.216695
     37          1           0       -1.060880  -10.418284   -0.364380
     38          6           0       -1.350969   -8.298370   -0.492775
     39          1           0       -2.370934   -8.349584   -0.852644
     40          6           0       -0.726898   -7.066870   -0.287280
     41          7           0       -1.179189   -5.763447   -0.462965
     42          6           0        0.593207   -7.022669    0.178628
     43          8           0        0.946948   -5.702732    0.287207
     44          6           0        1.350120   -8.146272    0.459825
     45          1           0        2.368805   -8.077201    0.818879
     46          6           0       -0.178576   -5.012664   -0.118868
 ---------------------------------------------------------------------

 SCF Done:  E(RB3LYP) =  -1260.73781959     a.u. after    8 cycles
 SCF Done:  E(RB3LYP) =  -1260.73784024     A.U. after   10 cycles

 Alpha  occ. eigenvalues --  -19.20556 -19.20556 -14.32152 -14.32152 -10.28189
 Alpha  occ. eigenvalues --  -10.28189 -10.24348 -10.24348 -10.21429 -10.21429
 Alpha  occ. eigenvalues --  -10.20808 -10.20808 -10.20615 -10.20584 -10.19542
 Alpha  occ. eigenvalues --  -10.19542 -10.19369 -10.19369 -10.19334 -10.19333
 Alpha  occ. eigenvalues --  -10.19269 -10.19269 -10.19203 -10.19203 -10.18931
 Alpha  occ. eigenvalues --  -10.18931 -10.18813 -10.18813 -10.18543 -10.18543
 Alpha  occ. eigenvalues --   -1.14102  -1.14102  -0.94110  -0.94107  -0.89477
 Alpha  occ. eigenvalues --   -0.88115  -0.86863  -0.86290  -0.81776  -0.78600
 Alpha  occ. eigenvalues --   -0.77281  -0.76830  -0.76440  -0.76287  -0.75449
 Alpha  occ. eigenvalues --   -0.73381  -0.68253  -0.65638  -0.64566  -0.64137
 Alpha  occ. eigenvalues --   -0.62260  -0.62223  -0.61505  -0.60716  -0.60122
 Alpha  occ. eigenvalues --   -0.58868  -0.55288  -0.54042  -0.52800  -0.52775
 Alpha  occ. eigenvalues --   -0.51966  -0.51126  -0.50216  -0.49104  -0.49101
 Alpha  occ. eigenvalues --   -0.48295  -0.46797  -0.46122  -0.46104  -0.46035
 Alpha  occ. eigenvalues --   -0.45557  -0.45477  -0.44496  -0.43911  -0.43665
 Alpha  occ. eigenvalues --   -0.42306  -0.42047  -0.40230  -0.40060  -0.39070
 Alpha  occ. eigenvalues --   -0.38567  -0.38528  -0.37369  -0.37150  -0.37089
 Alpha  occ. eigenvalues --   -0.36844  -0.36521  -0.36495  -0.35552  -0.34886
 Alpha  occ. eigenvalues --   -0.34334  -0.30543  -0.30380  -0.30330  -0.27594
 Alpha  occ. eigenvalues --   -0.27564  -0.27552  -0.25876  -0.25857  -0.24201
 Alpha  occ. eigenvalues --   -0.22559
 Alpha virt. eigenvalues --   -0.08575  -0.05772  -0.03287  -0.02934  -0.02241
 Alpha virt. eigenvalues --   -0.01624  -0.01002  -0.00767  -0.00634  -0.00344
 Alpha virt. eigenvalues --   -0.00189   0.00273   0.00802   0.00961   0.01331

 Mulliken charges:
               1
     1  C    0.595762
     2  C   -0.669011
     3  C   -0.557177
     4  C    0.956648
     5  C   -0.619344
     6  C   -0.635361
     7  C    0.956649
     8  C   -0.557178
     9  C   -0.669013
    10  C    0.595762
    11  C   -0.635361
    12  C   -0.619343
    13  H    0.205832
    14  H    0.188903
    15  H    0.188903
    16  H    0.205832
    17  H    0.161402
    18  H    0.161320
    19  H    0.161402
    20  H    0.161320
    21  H    0.170818
    22  C   -0.221812
    23  C   -0.184402
    24  H    0.169240
    25  C   -0.452121
    26  H    0.172397
    27  C    0.395570
    28  N    0.067660
    29  C    0.627072
    30  O   -0.072389
    31  C   -0.443225
    32  H    0.167360
    33  C   -0.185142
    34  H    0.170818
    35  C   -0.221811
    36  C   -0.184403
    37  H    0.169240
    38  C   -0.452122
    39  H    0.172397
    40  C    0.395570
    41  N    0.067660
    42  C    0.627073
    43  O   -0.072389
    44  C   -0.443225
    45  H    0.167360
    46  C   -0.185142
 Sum of Mulliken charges =   0.00000

 Dipole moment (field-independent basis, Debye):
    X=             -0.0000    Y=              0.0000    Z=              0.6979  Tot=              0.6979
 Quadrupole moment (field-independent basis, Debye-Ang):
   XX=           -162.4053   YY=           -144.2764   ZZ=           -179.2820
   XY=            -12.1193   XZ=             -0.0000   YZ=             -0.0000

  Exact polarizability:     279.169       6.529     773.446      -0.000      -0.000     171.264
 Approx polarizability:     531.790      19.446     910.925      -0.000      -0.000     288.244

                      1                      2                      3
                      A                      A                      A
 Frequencies --     14.9403                25.6397                26.2004
 Red. masses --      6.4449                 6.2943                 5.0773
 Frc consts  --      0.0008                 0.0024                 0.0021
 IR Inten    --      0.0780                 0.0902                 0.5668

                      4                      5                      6
                      A                      A                      A
 Frequencies --     46.2736                49.4097                71.9753
 Red. masses --      4.1082                 6.6869                 6.7867
 Frc consts  --      0.0052                 0.0096                 0.0207
 IR Inten    --      0.0361                 0.0839                 0.4488

                      7                      8                      9
                      A                      A                      A
 Frequencies --     81.4778                91.4957               119.1977
 Red. masses --      3.7461                 6.4632                 6.2320
 Frc consts  --      0.0147                 0.0319                 0.0522
 IR Inten    --      0.0190                 1.0709                 1.1862

                     10                     11                     12
                      A                      A                      A
 Frequencies --    138.2525               167.2244               201.1910
 Red. masses --      8.4416                 6.0661                 6.2138
 Frc consts  --      0.0951                 0.0999                 0.1482
 IR Inten    --      0.0007                 0.6964                 1.3222

                     13                     14                     15
                      A                      A                      A
 Frequencies --    257.5011               258.0906               277.6820
 Red. masses --      6.3502                 6.3345                 6.2768
 Frc consts  --      0.2481                 0.2486                 0.2852
 IR Inten    --      0.0319                 0.7517                 0.4621

                     16                     17                     18
                      A                      A                      A
 Frequencies --    297.2297               298.3501               336.1354
 Red. masses --      7.2662                 6.2077                 5.7400
 Frc consts  --      0.3782                 0.3256                 0.3821
 IR Inten    --      0.9291                 0.1577                 1.6866

                     19                     20                     21
                      A                      A                      A
 Frequencies --    346.5474               398.9414               412.8521
 Red. masses --      5.0562                 4.8448                 2.9563
 Frc consts  --      0.3578                 0.4543                 0.2969
 IR Inten    --      3.1236                 0.0089                 1.5701

                     22                     23                     24
                      A                      A                      A
 Frequencies --    419.0758               422.8033               440.4990
 Red. masses --      3.0089                 3.3576                 3.4799
 Frc consts  --      0.3113                 0.3536                 0.3978
 IR Inten    --      0.0199                 1.3227                 0.8429

                     25                     26                     27
                      A                      A                      A
 Frequencies --    445.7617               448.6667               521.0914
 Red. masses --      4.1102                 6.4733                 3.6843
 Frc consts  --      0.4812                 0.7678                 0.5894
 IR Inten    --      4.8294                 0.0010                19.0886

                     28                     29                     30
                      A                      A                      A
 Frequencies --    549.9943               560.6976               564.2168
 Red. masses --      6.8768                 5.4948                 2.7419
 Frc consts  --      1.2256                 1.0178                 0.5143
 IR Inten    --      1.3630                 2.4124                 3.7566

                     31                     32                     33
                      A                      A                      A
 Frequencies --    569.4499               583.2832               583.7823
 Red. masses --      8.1834                 3.9431                 3.8453
 Frc consts  --      1.5635                 0.7904                 0.7721
 IR Inten    --      1.9464                 0.0140                 0.1085

                     34                     35                     36
                      A                      A                      A
 Frequencies --    600.5292               632.6096               634.5342
 Red. masses --      7.4690                 7.0450                 6.9873
 Frc consts  --      1.5870                 1.6611                 1.6576
 IR Inten    --      0.0021                 0.1039                 7.0679

                     37                     38                     39
                      A                      A                      A
 Frequencies --    647.0479               656.8387               704.2754
 Red. masses --      6.9905                 6.9679                 7.0043
 Frc consts  --      1.7244                 1.7712                 2.0469
 IR Inten    --      0.0001                 0.4058                 2.2758

                     40                     41                     42
                      A                      A                      A
 Frequencies --    713.7016               716.4332               746.1982
 Red. masses --      4.5521                 3.9247                 2.3510
 Frc consts  --      1.3661                 1.1869                 0.7713
 IR Inten    --      0.7475                 0.5232                12.5526

                     43                     44                     45
                      A                      A                      A
 Frequencies --    751.9205               754.1372               761.5012
 Red. masses --      1.6427                 2.6146                 3.2417
 Frc consts  --      0.5472                 0.8761                 1.1076
 IR Inten    --     13.8637                79.7771                 4.2019

                     46                     47                     48
                      A                      A                      A
 Frequencies --    764.5879               773.8724               775.3548
 Red. masses --      2.6508                 4.1946                 6.1764
 Frc consts  --      0.9130                 1.4801                 2.1877
 IR Inten    --     91.7338                 3.3423                 0.0023

                     49                     50                     51
                      A                      A                      A
 Frequencies --    827.0533               831.8669               850.3195
 Red. masses --      5.6994                 5.7248                 1.5284
 Frc consts  --      2.2969                 2.3341                 0.6511
 IR Inten    --     45.8422                 0.0460                46.6805

                     52                     53                     54
                      A                      A                      A
 Frequencies --    853.2160               856.9648               857.5771
 Red. masses --      1.2541                 1.3144                 1.4023
 Frc consts  --      0.5379                 0.5687                 0.6076
 IR Inten    --      0.1565                 9.1655                 0.0060

                     55                     56                     57
                      A                      A                      A
 Frequencies --    857.6946               883.4390               905.8225
 Red. masses --      1.4023                 1.8163                 6.9208
 Frc consts  --      0.6078                 0.8352                 3.3457
 IR Inten    --      3.2847                 9.4991                 4.1611

                     58                     59                     60
                      A                      A                      A
 Frequencies --    905.9036               937.6104               937.9833
 Red. masses --      6.9207                11.9011                11.8887
 Frc consts  --      3.3463                 6.1643                 6.1627
 IR Inten    --      0.4500                18.0915                 1.7157

                     61                     62                     63
                      A                      A                      A
 Frequencies --    942.0776               942.0883               974.8400
 Red. masses --      1.3694                 1.3696                 1.2612
 Frc consts  --      0.7161                 0.7162                 0.7062
 IR Inten    --      4.7169                 0.5783                 0.0183

                     64                     65                     66
                      A                      A                      A
 Frequencies --    974.8551               981.4084               985.0072
 Red. masses --      1.2613                 1.3164                 1.3461
 Frc consts  --      0.7062                 0.7470                 0.7695
 IR Inten    --      0.0017                 0.3037                 0.0819

                     67                     68                     69
                      A                      A                      A
 Frequencies --    996.4928               997.6760              1020.9345
 Red. masses --      1.3530                 1.3547                 6.3319
 Frc consts  --      0.7916                 0.7945                 3.8885
 IR Inten    --      0.9630                 0.1556                31.3660

                     70                     71                     72
                      A                      A                      A
 Frequencies --   1022.1033              1022.1415              1033.5879
 Red. masses --      2.0381                 2.0376                 3.6505
 Frc consts  --      1.2545                 1.2543                 2.2977
 IR Inten    --     18.9654                 0.0655                 0.6193

                     73                     74                     75
                      A                      A                      A
 Frequencies --   1040.1117              1070.4914              1076.4679
 Red. masses --      4.5161                 4.1546                 2.7432
 Frc consts  --      2.8785                 2.8051                 1.8729
 IR Inten    --     66.2574                 3.1319                81.3247

                     76                     77                     78
                      A                      A                      A
 Frequencies --   1131.1716              1131.2149              1153.2743
 Red. masses --      1.5397                 1.5356                 1.3519
 Frc consts  --      1.1608                 1.1578                 1.0594
 IR Inten    --      1.5268                12.7804                 0.6643

                     79                     80                     81
                      A                      A                      A
 Frequencies --   1153.7016              1175.0725              1175.1660
 Red. masses --      1.4938                 1.2505                 1.2463
 Frc consts  --      1.1714                 1.0173                 1.0141
 IR Inten    --      7.0647                 0.0576                 4.5790

                     82                     83                     84
                      A                      A                      A
 Frequencies --   1211.9354              1212.5177              1221.6580
 Red. masses --      2.4981                 2.2651                 1.3678
 Frc consts  --      2.1618                 1.9621                 1.2027
 IR Inten    --      0.5651                60.5667                 0.4943

                     85                     86                     87
                      A                      A                      A
 Frequencies --   1229.6772              1263.6234              1264.4331
 Red. masses --      1.3323                 4.0724                 3.9734
 Frc consts  --      1.1870                 3.8312                 3.7429
 IR Inten    --      0.0064               180.2515                 0.7710

                     88                     89                     90
                      A                      A                      A
 Frequencies --   1295.3114              1303.6417              1309.4461
 Red. masses --      3.7263                 2.3978                 3.2615
 Frc consts  --      3.6837                 2.4009                 3.2949
 IR Inten    --      4.3779                 0.9857                 0.0386

                     91                     92                     93
                      A                      A                      A
 Frequencies --   1310.4163              1314.2797              1315.7495
 Red. masses --      1.7874                 2.5669                 3.1276
 Frc consts  --      1.8083                 2.6124                 3.1901
 IR Inten    --      7.0718                 3.0097                28.3204

                     94                     95                     96
                      A                      A                      A
 Frequencies --   1337.1660              1345.3125              1350.0766
 Red. masses --      8.8280                 1.4012                 1.8100
 Frc consts  --      9.3000                 1.4942                 1.9437
 IR Inten    --      0.0136                 0.2595                10.9319

                     97                     98                     99
                      A                      A                      A
 Frequencies --   1379.5828              1379.9208              1434.4171
 Red. masses --      5.0449                 4.9000                 2.7333
 Frc consts  --      5.6572                 5.4974                 3.3135
 IR Inten    --      1.2712                27.4063                36.9921

                    100                    101                    102
                      A                      A                      A
 Frequencies --   1453.2174              1473.9056              1474.3392
 Red. masses --      2.9460                 2.5318                 2.5550
 Frc consts  --      3.6656                 3.2405                 3.2721
 IR Inten    --      2.1628                65.7169                 0.4623

                    103                    104                    105
                      A                      A                      A
 Frequencies --   1505.0638              1505.2216              1523.2476
 Red. masses --      2.6186                 2.6298                 2.3851
 Frc consts  --      3.4949                 3.5106                 3.2606
 IR Inten    --      5.4503                 0.5513               178.3343

                    106                    107                    108
                      A                      A                      A
 Frequencies --   1543.8041              1573.6790              1589.5548
 Red. masses --      2.9840                 6.1358                 6.6909
 Frc consts  --      4.1902                 8.9526                 9.9606
 IR Inten    --      1.8038                71.6665                 1.0372

                    109                    110                    111
                      A                      A                      A
 Frequencies --   1599.4312              1609.6098              1640.9706
 Red. masses --      7.5896                 7.1843                 6.7394
 Frc consts  --     11.4393                10.9667                10.6924
 IR Inten    --    115.1767                 0.6926                 0.8216

                    112                    113                    114
                      A                      A                      A
 Frequencies --   1640.9980              1646.5037              1651.0453
 Red. masses --      7.2095                 5.9970                 6.7506
 Frc consts  --     11.4386                 9.5787                10.8420
 IR Inten    --      9.7167                 0.0642                 4.7379

                    115                    116                    117
                      A                      A                      A
 Frequencies --   1654.4228              1656.8072              3169.5566
 Red. masses --      7.4138                 6.3569                 1.0868
 Frc consts  --     11.9560                10.2810                 6.4327
 IR Inten    --      0.9943                88.0252                 4.4724

                    118                    119                    120
                      A                      A                      A
 Frequencies --   3169.5615              3173.5326              3173.7490
 Red. masses --      1.0868                 1.0891                 1.0892
 Frc consts  --      6.4327                 6.4628                 6.4642
 IR Inten    --      1.5821                 1.6398                23.3408

                    121                    122                    123
                      A                      A                      A
 Frequencies --   3178.7762              3179.0891              3184.0183
 Red. masses --      1.0888                 1.0881                 1.0907
 Frc consts  --      6.4819                 6.4792                 6.5150
 IR Inten    --      0.0034                 6.2367                19.1650

                    124                    125                    126
                      A                      A                      A
 Frequencies --   3184.0217              3198.1359              3198.1419
 Red. masses --      1.0907                 1.0945                 1.0945
 Frc consts  --      6.5150                 6.5955                 6.5955
 IR Inten    --      0.9442                13.7013                 5.3118

                    127                    128                    129
                      A                      A                      A
 Frequencies --   3199.4449              3199.7375              3200.7167
 Red. masses --      1.0933                 1.0937                 1.0939
 Frc consts  --      6.5939                 6.5976                 6.6028
 IR Inten    --      0.6658                 3.5572                 2.4222

                    130                    131                    132
                      A                      A                      A
 Frequencies --   3201.4480              3202.7236              3202.7431
 Red. masses --      1.0945                 1.0961                 1.0962
 Frc consts  --      6.6093                 6.6246                 6.6247
 IR Inten    --      0.1001                19.5285                 0.2387

 - Thermochemistry -
 -------------------
 Temperature   298.150 Kelvin.  Pressure   1.00000 Atm.
 Atom     1 has atomic number  6 and mass  12.00000

 Molecular mass:   388.12118 amu.
 Principal axes and moments of inertia in atomic units:
                           1         2         3
     Eigenvalues --  1544.63010********************
           X            0.00473   0.99999   0.00000
           Y            0.99999  -0.00473   0.00000
           Z           -0.00000  -0.00000   1.00000
 This molecule is an asymmetric top.
 Rotational symmetry number  2.
 Warning -- assumption of classical behavior for rotation
           may cause significant error
 Rotational temperatures (Kelvin)      0.05607     0.00172     0.00168
 Rotational constants (GHZ):           1.16840     0.03594     0.03510
 Zero-point vibrational energy     923524.2 (Joules/Mol)
                                  220.72758 (Kcal/Mol)
 Warning -- explicit consideration of  34 degrees of freedom as
           vibrations may cause significant error
 Vibrational temperatures:     21.50    36.89    37.70    66.58    71.09
          (Kelvin)            103.56   117.23   131.64   171.50   198.91
                              240.60   289.47   370.49   371.33   399.52
                              427.65   429.26   483.62   498.60   573.99
                              594.00   602.96   608.32   633.78   641.35
                              645.53   749.73   791.32   806.72   811.78
                              819.31   839.21   839.93   864.03   910.18
                              912.95   930.96   945.04  1013.30  1026.86
                             1030.79  1073.61  1081.85  1085.04  1095.63
                             1100.07  1113.43  1115.56  1189.95  1196.87
                             1223.42  1227.59  1232.98  1233.86  1234.03
                             1271.07  1303.28  1303.39  1349.01  1349.55
                             1355.44  1355.45  1402.58  1402.60  1412.03
                             1417.21  1433.73  1435.43  1468.90  1470.58
                             1470.63  1487.10  1496.49  1540.20  1548.80
                             1627.50  1627.57  1659.30  1659.92  1690.67
                             1690.80  1743.70  1744.54  1757.69  1769.23
                             1818.07  1819.24  1863.66  1875.65  1884.00
                             1885.40  1890.96  1893.07  1923.88  1935.60
                             1942.46  1984.91  1985.40  2063.81  2090.86
                             2120.62  2121.25  2165.45  2165.68  2191.61
                             2221.19  2264.17  2287.01  2301.22  2315.87
                             2360.99  2361.03  2368.95  2375.49  2380.35
                             2383.78  4560.29  4560.29  4566.01  4566.32
                             4573.55  4574.00  4581.09  4581.10  4601.40
                             4601.41  4603.29  4603.71  4605.12  4606.17
                             4608.00  4608.03

 Zero-point correction=                           0.351752 (Hartree/Particle)
 Thermal correction to Energy=                    0.373373
 Thermal correction to Enthalpy=                  0.374317
 Thermal correction to Gibbs Free Energy=         0.298741
 Sum of electronic and zero-point Energies=          -1260.386088
 Sum of electronic and thermal Energies=             -1260.364467
 Sum of electronic and thermal Enthalpies=           -1260.363523
 Sum of electronic and thermal Free Energies=        -1260.439099

                     E (Thermal)             CV                S
                      KCal/Mol        Cal/Mol-Kelvin    Cal/Mol-Kelvin
 Total                  234.295             88.157            159.063
 Electronic               0.000              0.000              0.000
 Translational            0.889              2.981             43.760
 Rotational               0.889              2.981             35.254
 Vibrational            232.518             82.196             80.049
 Vibration     1          0.593              1.986              7.213
 Vibration     2          0.593              1.985              6.141
 Vibration     3          0.593              1.985              6.098
 Vibration     4          0.595              1.979              4.971
 Vibration     5          0.595              1.978              4.841
 Vibration     6          0.598              1.967              4.099
 Vibration     7          0.600              1.962              3.855
 Vibration     8          0.602              1.955              3.628
 Vibration     9          0.609              1.933              3.113
 Vibration    10          0.614              1.915              2.828
 Vibration    11          0.624              1.883              2.466
 Vibration    12          0.638              1.838              2.122
 Vibration    13          0.667              1.750              1.679
 Vibration    14          0.667              1.749              1.675
 Vibration    15          0.679              1.715              1.548
 Vibration    16          0.691              1.679              1.432
 Vibration    17          0.691              1.677              1.426
 Vibration    18          0.717              1.603              1.230
 Vibration    19          0.725              1.582              1.182
 Vibration    20          0.765              1.472              0.967
 Vibration    21          0.777              1.442              0.917
 Vibration    22          0.782              1.429              0.895
 Vibration    23          0.785              1.421              0.882
 Vibration    24          0.800              1.382              0.825
 Vibration    25          0.805              1.370              0.809
 Vibration    26          0.808              1.364              0.800
 Vibration    27          0.876              1.203              0.607
 Vibration    28          0.905              1.140              0.544
 Vibration    29          0.916              1.116              0.522
 Vibration    30          0.920              1.109              0.515
 Vibration    31          0.926              1.097              0.505
 Vibration    32          0.940              1.067              0.479
 Vibration    33          0.941              1.066              0.478
 Vibration    34          0.959              1.031              0.449

 Optimization completed.
    -- Stationary point found.
 Normal termination of Gaussian 16 at Fri Oct  9 14:52:03 2020.
