 Gaussian 16, Revision C.01,
 Gaussian 16:  ES64L-G16RevC.01  3-Jul-2019

 ----------------------------------------------------------------------
 #P B3LYP/6-311++G(d,p) EmpiricalDispersion=GD3 freq(noraman) SCF=YQC N
 oSymm
 ----------------------------------------------------------------------

 -------------------------------------------------
 Restart from 2_Phenyl_Ketoenamine_Ketoenamine.log
 -------------------------------------------------
 Symbolic Z-matrix:
 Charge =  0 Multiplicity = 1

                          Input orientation:
 ---------------------------------------------------------------------
 Center     Atomic      Atomic             Coordinates (Angstroms)
 Number     Number       Type             X           Y           Z
 ---------------------------------------------------------------------
      1          6           0        0.012100   -1.409960   -0.024187
      2          6           0       -0.012104    1.409960    0.024176
      3          6           0       -1.197932   -0.704361   -0.034798
      4          6           0        1.197928    0.704361    0.034787
      5          6           0       -1.211101    0.683662   -0.014240
      6          6           0        1.211097   -0.683662    0.014229
      7          1           0        2.163370   -1.197852    0.049075
      8          1           0       -2.163373    1.197852   -0.049086
      9          1           0        2.122282    1.267516    0.061715
     10          1           0       -2.122285   -1.267516   -0.061726
     11          6           0       -0.044946   -2.909960   -0.034997
     12          8           0       -1.120626   -3.471351    0.247444
     13          6           0        1.135604   -3.665035   -0.391064
     14          6           0        1.158611   -5.035773   -0.402617
     15          1           0        2.036265   -3.154765   -0.696816
     16          7           0        0.110980   -5.823764   -0.085580
     17          1           0        2.069173   -5.544385   -0.697627
     18          6           0        0.073656   -7.225401   -0.046127
     19          1           0       -0.738673   -5.297331    0.133318
     20          6           0        1.225239   -8.022368   -0.094740
     21          6           0       -1.180657   -7.843763    0.060826
     22          6           0        1.112601   -9.409542   -0.056448
     23          1           0        2.208883   -7.572964   -0.143844
     24          6           0       -0.134653  -10.023470    0.043853
     25          1           0        2.012456  -10.013132   -0.094437
     26          6           0       -1.279623   -9.229209    0.107355
     27          1           0       -2.074274   -7.230099    0.100746
     28          1           0       -0.212983  -11.103434    0.077818
     29          1           0       -2.257703   -9.689429    0.189498
     30          6           0        0.044943    2.909960    0.034985
     31          8           0        1.120624    3.471350   -0.247450
     32          6           0       -1.135605    3.665035    0.391059
     33          6           0       -1.158611    5.035773    0.402617
     34          1           0       -2.036266    3.154765    0.696813
     35          7           0       -0.110980    5.823764    0.085579
     36          1           0       -2.069172    5.544385    0.697632
     37          6           0       -0.073655    7.225401    0.046130
     38          1           0        0.738671    5.297331   -0.133325
     39          6           0       -1.225237    8.022369    0.094751
     40          6           0        1.180658    7.843762   -0.060827
     41          6           0       -1.112598    9.409543    0.056463
     42          1           0       -2.208882    7.572966    0.143857
     43          6           0        0.134657   10.023470   -0.043842
     44          1           0       -2.012452   10.013134    0.094458
     45          6           0        1.279625    9.229208   -0.107352
     46          1           0        2.074274    7.230097   -0.100753
     47          1           0        0.212988   11.103434   -0.077803
     48          1           0        2.257706    9.689428   -0.189497
 ---------------------------------------------------------------------

 SCF Done:  E(RB3LYP) =  -1186.91619701     a.u. after    8 cycles
 SCF Done:  E(RB3LYP) =  -1186.91622867     A.U. after   10 cycles

 Alpha  occ. eigenvalues --  -19.10105 -19.10105 -14.36384 -14.36384 -10.25665
 Alpha  occ. eigenvalues --  -10.25665 -10.24080 -10.24080 -10.23549 -10.23549
 Alpha  occ. eigenvalues --  -10.19135 -10.19133 -10.18932 -10.18932 -10.18849
 Alpha  occ. eigenvalues --  -10.18849 -10.18811 -10.18811 -10.18688 -10.18688
 Alpha  occ. eigenvalues --  -10.18670 -10.18668 -10.18161 -10.18161 -10.18113
 Alpha  occ. eigenvalues --  -10.18112 -10.17144 -10.17144  -1.03247  -1.03232
 Alpha  occ. eigenvalues --   -0.97696  -0.97694  -0.87024  -0.86733  -0.86733
 Alpha  occ. eigenvalues --   -0.80014  -0.79470  -0.77798  -0.76446  -0.76441
 Alpha  occ. eigenvalues --   -0.75806  -0.74506  -0.73648  -0.68328  -0.66181
 Alpha  occ. eigenvalues --   -0.64462  -0.63192  -0.62728  -0.61919  -0.61193
 Alpha  occ. eigenvalues --   -0.59725  -0.57210  -0.56553  -0.56097  -0.55860
 Alpha  occ. eigenvalues --   -0.52424  -0.50746  -0.50555  -0.50078  -0.47981
 Alpha  occ. eigenvalues --   -0.47453  -0.46737  -0.46317  -0.45950  -0.45283
 Alpha  occ. eigenvalues --   -0.45024  -0.44010  -0.43911  -0.43806  -0.43148
 Alpha  occ. eigenvalues --   -0.43057  -0.42966  -0.42651  -0.42006  -0.41851
 Alpha  occ. eigenvalues --   -0.40601  -0.40194  -0.39862  -0.37757  -0.37682
 Alpha  occ. eigenvalues --   -0.37634  -0.36877  -0.36251  -0.36128  -0.35866
 Alpha  occ. eigenvalues --   -0.34970  -0.34892  -0.27983  -0.27946  -0.27073
 Alpha  occ. eigenvalues --   -0.27069  -0.26875  -0.26565  -0.25903  -0.25599
 Alpha  occ. eigenvalues --   -0.21943  -0.21576
 Alpha virt. eigenvalues --   -0.08972  -0.06077  -0.03087  -0.02733  -0.02556
 Alpha virt. eigenvalues --   -0.01735  -0.01187  -0.01101  -0.00389  -0.00255
 Alpha virt. eigenvalues --   -0.00161   0.00442   0.00955   0.01173   0.01568

 Mulliken charges:
               1
     1  C    0.999244
     2  C    0.999238
     3  C   -0.404987
     4  C   -0.404992
     5  C   -0.920197
     6  C   -0.920197
     7  H    0.114445
     8  H    0.114445
     9  H    0.185947
    10  H    0.185947
    11  C   -0.111045
    12  O   -0.283624
    13  C   -0.200372
    14  C    0.000477
    15  H    0.141907
    16  N    0.085886
    17  H    0.131081
    18  C   -0.145071
    19  H    0.412747
    20  C    0.354614
    21  C   -0.304151
    22  C   -0.191867
    23  H    0.113924
    24  C   -0.380060
    25  H    0.185482
    26  C   -0.256041
    27  H    0.144043
    28  H    0.146863
    29  H    0.180759
    30  C   -0.111041
    31  O   -0.283624
    32  C   -0.200371
    33  C    0.000475
    34  H    0.141908
    35  N    0.085885
    36  H    0.131081
    37  C   -0.145074
    38  H    0.412747
    39  C    0.354617
    40  C   -0.304153
    41  C   -0.191866
    42  H    0.113924
    43  C   -0.380060
    44  H    0.185482
    45  C   -0.256041
    46  H    0.144043
    47  H    0.146863
    48  H    0.180759
 Sum of Mulliken charges =   0.00000

 Dipole moment (field-independent basis, Debye):
    X=              0.0000    Y=             -0.0000    Z=              0.0000  Tot=              0.0000
 Quadrupole moment (field-independent basis, Debye-Ang):
   XX=           -148.7042   YY=           -115.4583   ZZ=           -175.3936
   XY=            -15.1026   XZ=             -2.0514   YZ=              4.2703

  Exact polarizability:     286.863      -3.734     761.651     -13.553       0.367     160.090
 Approx polarizability:     526.285       3.111     864.759     -29.287      -3.070     255.503

                      1                      2                      3
                      A                      A                      A
 Frequencies --     10.2760                13.7420                20.8041
 Red. masses --      6.3908                 3.7151                 4.0313
 Frc consts  --      0.0004                 0.0004                 0.0010
 IR Inten    --      0.3950                 0.2570                 0.0000

                      4                      5                      6
                      A                      A                      A
 Frequencies --     22.1266                27.9958                44.8824
 Red. masses --      5.6782                 5.9605                 5.0439
 Frc consts  --      0.0016                 0.0028                 0.0060
 IR Inten    --      0.7589                 0.0000                 6.5182

                      7                      8                      9
                      A                      A                      A
 Frequencies --     46.3795                64.0775                68.4167
 Red. masses --      4.5331                 5.5483                 6.0921
 Frc consts  --      0.0057                 0.0134                 0.0168
 IR Inten    --      0.0000                 0.0000                 2.6498

                     10                     11                     12
                      A                      A                      A
 Frequencies --    102.6759               117.6386               124.0388
 Red. masses --      5.5842                 5.7807                 6.4112
 Frc consts  --      0.0347                 0.0471                 0.0581
 IR Inten    --      0.0000                 2.0099                 0.0000

                     13                     14                     15
                      A                      A                      A
 Frequencies --    142.0909               186.8949               203.6003
 Red. masses --      6.4459                 5.2723                 6.3155
 Frc consts  --      0.0767                 0.1085                 0.1542
 IR Inten    --      1.2487                 0.0000                 7.6042

                     16                     17                     18
                      A                      A                      A
 Frequencies --    237.4945               263.9281               281.9335
 Red. masses --      5.6614                 4.9397                 5.3318
 Frc consts  --      0.1881                 0.2027                 0.2497
 IR Inten    --      0.0000                 0.3737                 0.0000

                     19                     20                     21
                      A                      A                      A
 Frequencies --    320.5282               329.4799               368.8151
 Red. masses --      7.4736                 8.5350                 2.9618
 Frc consts  --      0.4524                 0.5459                 0.2374
 IR Inten    --     17.8934                 0.0000                 1.0998

                     22                     23                     24
                      A                      A                      A
 Frequencies --    385.1297               410.6307               413.8147
 Red. masses --      2.9298                 2.8752                 2.9439
 Frc consts  --      0.2560                 0.2856                 0.2970
 IR Inten    --      0.0000                 1.7258                 0.3026

                     25                     26                     27
                      A                      A                      A
 Frequencies --    414.2052               420.5409               456.2435
 Red. masses --      2.9460                 5.8209                 4.6911
 Frc consts  --      0.2978                 0.6065                 0.5753
 IR Inten    --      0.0000                 0.0000                12.6337

                     28                     29                     30
                      A                      A                      A
 Frequencies --    464.2483               470.7909               510.1075
 Red. masses --      5.2572                 4.4775                 6.1982
 Frc consts  --      0.6676                 0.5847                 0.9502
 IR Inten    --      0.0000                24.0425                 3.1959

                     31                     32                     33
                      A                      A                      A
 Frequencies --    515.3762               516.5308               524.2705
 Red. masses --      3.1812                 2.9272                 5.8147
 Frc consts  --      0.4978                 0.4601                 0.9416
 IR Inten    --     22.3148                 0.0000                 0.0000

                     34                     35                     36
                      A                      A                      A
 Frequencies --    530.4825               624.6642               631.8687
 Red. masses --      4.8796                 6.0797                 6.4263
 Frc consts  --      0.8091                 1.3977                 1.5117
 IR Inten    --      2.9890                 0.0000                 0.2293

                     37                     38                     39
                      A                      A                      A
 Frequencies --    631.9436               647.3757               651.0301
 Red. masses --      6.4514                 7.0783                 5.7508
 Frc consts  --      1.5180                 1.7478                 1.4361
 IR Inten    --      0.0000                 0.0000                 9.3579

                     40                     41                     42
                      A                      A                      A
 Frequencies --    695.0166               697.6488               698.0138
 Red. masses --      3.5353                 1.8640                 2.0621
 Frc consts  --      1.0062                 0.5345                 0.5920
 IR Inten    --      0.0000                49.1151                 0.0000

                     43                     44                     45
                      A                      A                      A
 Frequencies --    725.5724               742.0588               749.1445
 Red. masses --      1.7510                 2.3135                 2.0183
 Frc consts  --      0.5431                 0.7506                 0.6674
 IR Inten    --     15.8467                 0.0000                 0.0000

                     46                     47                     48
                      A                      A                      A
 Frequencies --    764.1535               764.4745               765.8309
 Red. masses --      1.8325                 1.7798                 1.5043
 Frc consts  --      0.6304                 0.6128                 0.5198
 IR Inten    --     33.9149                 0.0000               171.4475

                     49                     50                     51
                      A                      A                      A
 Frequencies --    805.6024               814.9090               818.7156
 Red. masses --      2.0598                 3.2377                 1.5330
 Frc consts  --      0.7876                 1.2668                 0.6054
 IR Inten    --      0.0000                85.6690                54.3602

                     52                     53                     54
                      A                      A                      A
 Frequencies --    823.3264               832.7599               837.9598
 Red. masses --      1.7478                 4.9333                 1.2870
 Frc consts  --      0.6980                 2.0157                 0.5324
 IR Inten    --      0.0000                 0.0000                80.2460

                     55                     56                     57
                      A                      A                      A
 Frequencies --    839.5036               855.0397               881.5199
 Red. masses --      1.4389                 1.2568                 2.1775
 Frc consts  --      0.5975                 0.5414                 0.9969
 IR Inten    --      0.0000                 0.0000                10.2002

                     58                     59                     60
                      A                      A                      A
 Frequencies --    898.2584               898.3246               932.3253
 Red. masses --      1.4672                 1.4677                 4.6289
 Frc consts  --      0.6975                 0.6978                 2.3706
 IR Inten    --     15.9128                 0.0002                43.8107

                     61                     62                     63
                      A                      A                      A
 Frequencies --    936.2899               972.2094               972.2135
 Red. masses --      4.7228                 1.3570                 1.3572
 Frc consts  --      2.4393                 0.7557                 0.7558
 IR Inten    --      0.0000                 0.0195                 1.0012

                     64                     65                     66
                      A                      A                      A
 Frequencies --    984.7821               985.8805               990.6957
 Red. masses --      1.2875                 1.2828                 1.3027
 Frc consts  --      0.7356                 0.7346                 0.7533
 IR Inten    --      0.0000                33.7417                 0.0000

                     67                     68                     69
                      A                      A                      A
 Frequencies --    991.6746               992.8837               999.6294
 Red. masses --      1.2685                 1.3017                 1.3710
 Frc consts  --      0.7350                 0.7560                 0.8072
 IR Inten    --     10.3772                 0.0000                 8.3752

                     70                     71                     72
                      A                      A                      A
 Frequencies --   1010.9768              1010.9910              1027.6371
 Red. masses --      5.7439                 5.7354                 4.1375
 Frc consts  --      3.4589                 3.4539                 2.5743
 IR Inten    --      0.0000                 0.9063               195.5923

                     73                     74                     75
                      A                      A                      A
 Frequencies --   1047.0364              1049.6970              1056.5259
 Red. masses --      2.8248                 2.1927                 3.6463
 Frc consts  --      1.8246                 1.4235                 2.3981
 IR Inten    --      0.0000                 0.7882                 0.0000

                     76                     77                     78
                      A                      A                      A
 Frequencies --   1066.1061              1111.7990              1111.9426
 Red. masses --      2.6456                 1.6274                 1.6244
 Frc consts  --      1.7716                 1.1852                 1.1833
 IR Inten    --    307.7477                17.1433                 0.0000

                     79                     80                     81
                      A                      A                      A
 Frequencies --   1145.0476              1170.8141              1177.8635
 Red. masses --      1.4074                 1.6816                 1.7918
 Frc consts  --      1.0872                 1.3581                 1.4647
 IR Inten    --     40.7014                 0.0000                 3.0278

                     82                     83                     84
                      A                      A                      A
 Frequencies --   1192.1369              1192.1519              1212.2261
 Red. masses --      1.1179                 1.1177                 1.1675
 Frc consts  --      0.9361                 0.9359                 1.0108
 IR Inten    --     12.1359                 0.0038                 0.0000

                     85                     86                     87
                      A                      A                      A
 Frequencies --   1212.5378              1217.5280              1250.5299
 Red. masses --      1.1522                 1.2122                 2.4241
 Frc consts  --      0.9981                 1.0587                 2.2335
 IR Inten    --     43.5030                 0.0000                 0.0000

                     88                     89                     90
                      A                      A                      A
 Frequencies --   1254.4161              1261.4076              1269.7601
 Red. masses --      2.8230                 1.7679                 2.5243
 Frc consts  --      2.6173                 1.6574                 2.3979
 IR Inten    --   1043.5873               291.7059                 0.0000

                     91                     92                     93
                      A                      A                      A
 Frequencies --   1327.9603              1330.8257              1333.6996
 Red. masses --      1.8998                 2.7058                 3.4082
 Frc consts  --      1.9739                 2.8235                 3.5719
 IR Inten    --   1446.1904                 0.0000               275.1003

                     94                     95                     96
                      A                      A                      A
 Frequencies --   1334.2199              1337.3510              1339.4393
 Red. masses --      1.9710                 9.2918                 1.4073
 Frc consts  --      2.0672                 9.7913                 1.4876
 IR Inten    --      0.0000                20.6332                 0.0000

                     97                     98                     99
                      A                      A                      A
 Frequencies --   1362.3755              1362.4784              1411.1222
 Red. masses --      1.5738                 1.5763                 1.8174
 Frc consts  --      1.7210                 1.7241                 2.1322
 IR Inten    --      4.9520                 0.0000                29.9109

                    100                    101                    102
                      A                      A                      A
 Frequencies --   1411.3243              1429.9933              1483.3027
 Red. masses --      1.8159                 2.6915                 2.1579
 Frc consts  --      2.1311                 3.2428                 2.7973
 IR Inten    --      0.0001                 5.6776               130.1670

                    103                    104                    105
                      A                      A                      A
 Frequencies --   1485.1728              1509.0883              1513.9277
 Red. masses --      2.1756                 2.6053                 2.6005
 Frc consts  --      2.8273                 3.4957                 3.5117
 IR Inten    --      0.0000               571.1989                 0.0000

                    106                    107                    108
                      A                      A                      A
 Frequencies --   1532.2371              1538.7503              1544.4300
 Red. masses --      2.3113                 2.7718                 2.7093
 Frc consts  --      3.1971                 3.8667                 3.8075
 IR Inten    --    167.4460                 0.0000               127.6220

                    109                    110                    111
                      A                      A                      A
 Frequencies --   1579.1022              1607.5142              1616.3537
 Red. masses --      5.0314                 4.1501                 5.1183
 Frc consts  --      7.3920                 6.3186                 7.8786
 IR Inten    --      0.0000               501.0794                 0.0000

                    112                    113                    114
                      A                      A                      A
 Frequencies --   1634.9892              1638.1453              1640.6014
 Red. masses --      5.1353                 4.9361                 4.9935
 Frc consts  --      8.0880                 7.8043                 7.9189
 IR Inten    --     58.8463                 0.0000               817.9707

                    115                    116                    117
                      A                      A                      A
 Frequencies --   1642.0395              1649.2327              1675.5550
 Red. masses --      5.1423                 5.0342                 3.2219
 Frc consts  --      8.1690                 8.0676                 5.3294
 IR Inten    --      0.0000                 0.0000              2266.3377

                    118                    119                    120
                      A                      A                      A
 Frequencies --   1685.5702              3161.5109              3161.5256
 Red. masses --      3.4514                 1.0864                 1.0864
 Frc consts  --      5.7774                 6.3977                 6.3978
 IR Inten    --      0.0000                20.8303                 0.1895

                    121                    122                    123
                      A                      A                      A
 Frequencies --   3167.2549              3167.2634              3176.0897
 Red. masses --      1.0881                 1.0881                 1.0902
 Frc consts  --      6.4311                 6.4311                 6.4796
 IR Inten    --      6.8373                 0.0071                29.1707

                    124                    125                    126
                      A                      A                      A
 Frequencies --   3176.1335              3179.1345              3179.2343
 Red. masses --      1.0903                 1.0919                 1.0921
 Frc consts  --      6.4800                 6.5020                 6.5035
 IR Inten    --      0.0462                 5.1018                 0.0014

                    127                    128                    129
                      A                      A                      A
 Frequencies --   3181.9926              3183.1902              3190.4827
 Red. masses --      1.0890                 1.0883                 1.0931
 Frc consts  --      6.4964                 6.4974                 6.5559
 IR Inten    --     10.3780                 0.0001                41.8510

                    130                    131                    132
                      A                      A                      A
 Frequencies --   3190.4937              3196.4090              3196.4226
 Red. masses --      1.0931                 1.0956                 1.0956
 Frc consts  --      6.5557                 6.5953                 6.5953
 IR Inten    --      1.3291                18.6074                 0.2362

                    133                    134                    135
                      A                      A                      A
 Frequencies --   3200.3092              3201.5808              3225.0747
 Red. masses --      1.0932                 1.0941                 1.0910
 Frc consts  --      6.5967                 6.6073                 6.6860
 IR Inten    --      7.0642                 0.0001                 8.1145

                    136                    137                    138
                      A                      A                      A
 Frequencies --   3225.2519              3383.1273              3383.2082
 Red. masses --      1.0911                 1.0791                 1.0791
 Frc consts  --      6.6872                 7.2768                 7.2772
 IR Inten    --      0.0015               201.6418                 0.1625

 - Thermochemistry -
 -------------------
 Temperature   298.150 Kelvin.  Pressure   1.00000 Atm.
 Atom     1 has atomic number  6 and mass  12.00000

 Molecular mass:   368.15248 amu.
 Principal axes and moments of inertia in atomic units:
                           1         2         3
     Eigenvalues --  1419.35928********************
           X           -0.00826   0.99256   0.12147
           Y            0.99995   0.00883  -0.00416
           Z            0.00520  -0.12143   0.99259
 This molecule is an asymmetric top.
 Rotational symmetry number  1.
 Warning -- assumption of classical behavior for rotation
           may cause significant error
 Rotational temperatures (Kelvin)      0.06102     0.00168     0.00164
 Rotational constants (GHZ):           1.27152     0.03507     0.03416
 Zero-point vibrational energy    1004953.5 (Joules/Mol)
                                  240.18966 (Kcal/Mol)
 Warning -- explicit consideration of  34 degrees of freedom as
           vibrations may cause significant error
 Vibrational temperatures:     14.78    19.77    29.93    31.84    40.28
          (Kelvin)             64.58    66.73    92.19    98.44   147.73
                              169.26   178.46   204.44   268.90   292.94
                              341.70   379.73   405.64   461.17   474.05
                              530.64   554.12   590.81   595.39   595.95
                              605.06   656.43   667.95   677.36   733.93
                              741.51   743.17   754.31   763.25   898.75
                              909.12   909.23   931.43   936.69   999.97
                             1003.76  1004.29  1043.94  1067.66  1077.85
                             1099.45  1099.91  1101.86  1159.08  1172.47
                             1177.95  1184.58  1198.16  1205.64  1207.86
                             1230.21  1268.31  1292.39  1292.49  1341.41
                             1347.11  1398.79  1398.80  1416.88  1418.46
                             1425.39  1426.80  1428.54  1438.24  1454.57
                             1454.59  1478.54  1506.45  1510.28  1520.11
                             1533.89  1599.63  1599.84  1647.47  1684.54
                             1694.68  1715.22  1715.24  1744.12  1744.57
                             1751.75  1799.23  1804.82  1814.88  1826.90
                             1910.64  1914.76  1918.90  1919.64  1924.15
                             1927.15  1960.15  1960.30  2030.29  2030.58
                             2057.44  2134.14  2136.83  2171.24  2178.20
                             2204.55  2213.92  2222.09  2271.98  2312.85
                             2325.57  2352.38  2356.93  2360.46  2362.53
                             2372.88  2410.75  2425.16  4548.71  4548.73
                             4556.97  4556.99  4569.68  4569.75  4574.07
                             4574.21  4578.18  4579.90  4590.39  4590.41
                             4598.92  4598.94  4604.53  4606.36  4640.16
                             4640.42  4867.57  4867.68

 Zero-point correction=                           0.382767 (Hartree/Particle)
 Thermal correction to Energy=                    0.406526
 Thermal correction to Enthalpy=                  0.407470
 Thermal correction to Gibbs Free Energy=         0.323269
 Sum of electronic and zero-point Energies=          -1186.533462
 Sum of electronic and thermal Energies=             -1186.509703
 Sum of electronic and thermal Enthalpies=           -1186.508759
 Sum of electronic and thermal Free Energies=        -1186.592960

                     E (Thermal)             CV                S
                      KCal/Mol        Cal/Mol-Kelvin    Cal/Mol-Kelvin
 Total                  255.099             92.173            177.217
 Electronic               0.000              0.000              0.000
 Translational            0.889              2.981             43.603
 Rotational               0.889              2.981             36.599
 Vibrational            253.321             86.211             97.015
 Vibration     1          0.593              1.987              7.957
 Vibration     2          0.593              1.986              7.380
 Vibration     3          0.593              1.986              6.556
 Vibration     4          0.593              1.985              6.434
 Vibration     5          0.593              1.984              5.967
 Vibration     6          0.595              1.979              5.031
 Vibration     7          0.595              1.979              4.966
 Vibration     8          0.597              1.971              4.328
 Vibration     9          0.598              1.969              4.198
 Vibration    10          0.605              1.947              3.403
 Vibration    11          0.608              1.935              3.139
 Vibration    12          0.610              1.929              3.036
 Vibration    13          0.616              1.911              2.776
 Vibration    14          0.632              1.858              2.258
 Vibration    15          0.639              1.835              2.100
 Vibration    16          0.656              1.783              1.822
 Vibration    17          0.670              1.739              1.636
 Vibration    18          0.681              1.707              1.522
 Vibration    19          0.706              1.634              1.307
 Vibration    20          0.712              1.617              1.263
 Vibration    21          0.741              1.536              1.085
 Vibration    22          0.754              1.502              1.019
 Vibration    23          0.775              1.447              0.924
 Vibration    24          0.777              1.440              0.913
 Vibration    25          0.778              1.439              0.912
 Vibration    26          0.783              1.426              0.890
 Vibration    27          0.814              1.347              0.777
 Vibration    28          0.822              1.329              0.754
 Vibration    29          0.828              1.315              0.735
 Vibration    30          0.865              1.228              0.633
 Vibration    31          0.870              1.216              0.621
 Vibration    32          0.872              1.213              0.618
 Vibration    33          0.879              1.196              0.600
 Vibration    34          0.885              1.183              0.586

 Normal termination of Gaussian 16 at Sat Oct 17 09:07:22 2020.
