 Gaussian 16, Revision C.01,
 Gaussian 16:  ES64L-G16RevC.01  3-Jul-2019

 --------------------------------------------------------------------
 #P B3LYP/6-311++G(d,p) EmpiricalDispersion=GD3 freq(noraman) SCF=YQC
 --------------------------------------------------------------------

 ---------------------------------------------
 Restart from TPG_Aldehyde_Benzobisoxazole.log
 ---------------------------------------------
 Symbolic Z-matrix:
 Charge =  0 Multiplicity = 1

                         Standard orientation:
 ---------------------------------------------------------------------
 Center     Atomic      Atomic             Coordinates (Angstroms)
 Number     Number       Type             X           Y           Z
 ---------------------------------------------------------------------
      1          6           0        0.059699    1.425408   -0.000003
      2          6           0        1.254860    0.651158   -0.000026
      3          8           0        2.447707    1.227106   -0.000048
      4          6           0        1.204633   -0.764488   -0.000027
      5          6           0       -0.063469   -1.412409   -0.000029
      6          8           0       -0.161088   -2.733417   -0.000048
      7          6           0       -1.264346   -0.661096   -0.000005
      8          6           0       -1.191395    0.761072    0.000015
      9          8           0       -2.286599    1.506144    0.000054
     10          1           0        0.760339   -3.130860   -0.000060
     11          1           0       -3.091511    0.906894    0.000060
     12          1           0        2.331208    2.223811   -0.000045
     13          1           0       -0.756212    8.287085    0.000016
     14          6           0       -0.277792    7.314953    0.000007
     15          6           0        1.125361    7.239356   -0.000017
     16          1           0        1.700898    8.157617   -0.000026
     17          6           0        1.793167    6.016599   -0.000030
     18          1           0        2.874232    5.956302   -0.000049
     19          6           0        1.007839    4.864129   -0.000018
     20          7           0        1.331357    3.513894   -0.000027
     21          6           0       -0.385926    4.964968    0.000006
     22          8           0       -0.901480    3.691598    0.000012
     23          6           0       -1.071166    6.166089    0.000019
     24          1           0       -2.152484    6.206880    0.000037
     25          6           0        0.186013    2.868366   -0.000002
     26          1           0        7.555091   -3.488426    0.000104
     27          6           0        6.473985   -3.416746    0.000069
     28          6           0        5.707004   -4.594155    0.000012
     29          1           0        6.214524   -5.551687    0.000003
     30          6           0        4.314164   -4.561192   -0.000034
     31          1           0        3.721466   -5.467309   -0.000079
     32          6           0        3.708680   -3.304878   -0.000021
     33          7           0        2.377560   -2.910012   -0.000056
     34          6           0        4.492830   -2.148222    0.000037
     35          8           0        3.647778   -1.065101    0.000038
     36          6           0        5.875649   -2.155267    0.000083
     37          1           0        6.451582   -1.239179    0.000127
     38          6           0        2.391124   -1.595344   -0.000024
     39          1           0       -6.798935   -4.798335   -0.000021
     40          6           0       -6.196220   -3.897968   -0.000009
     41          6           0       -6.832280   -2.644976    0.000032
     42          1           0       -7.915283   -2.605631    0.000051
     43          6           0       -6.107197   -1.455295    0.000050
     44          1           0       -6.595466   -0.488893    0.000084
     45          6           0       -4.716471   -1.559231    0.000026
     46          7           0       -3.708859   -0.603981    0.000038
     47          6           0       -4.106966   -2.816708   -0.000016
     48          8           0       -2.746410   -2.626557   -0.000032
     49          6           0       -4.804592   -4.010673   -0.000034
     50          1           0       -4.299297   -4.967538   -0.000066
     51          6           0       -2.577161   -1.273153   -0.000004
 ---------------------------------------------------------------------

 SCF Done:  E(RB3LYP) =  -1654.03508551     a.u. after    6 cycles
 SCF Done:  E(RB3LYP) =  -1654.03511418     A.U. after   10 cycles

 The electronic state is 1-A.
 Alpha  occ. eigenvalues --  -19.20894 -19.20893 -19.20893 -19.15772 -19.15771
 Alpha  occ. eigenvalues --  -19.15770 -14.33351 -14.33350 -14.33350 -10.29746
 Alpha  occ. eigenvalues --  -10.29746 -10.29745 -10.28058 -10.28057 -10.28057
 Alpha  occ. eigenvalues --  -10.24577 -10.24577 -10.24577 -10.22141 -10.22141
 Alpha  occ. eigenvalues --  -10.22140 -10.20769 -10.20769 -10.20767 -10.19552
 Alpha  occ. eigenvalues --  -10.19552 -10.19552 -10.19189 -10.19189 -10.19188
 Alpha  occ. eigenvalues --  -10.19053 -10.19053 -10.19053 -10.18836 -10.18835
 Alpha  occ. eigenvalues --  -10.18835  -1.14951  -1.14893  -1.14893  -1.08811
 Alpha  occ. eigenvalues --   -1.08483  -1.08483  -0.94911  -0.94874  -0.94874
 Alpha  occ. eigenvalues --   -0.88365  -0.87488  -0.87487  -0.86504  -0.81117
 Alpha  occ. eigenvalues --   -0.81117  -0.77171  -0.76903  -0.76903  -0.76590
 Alpha  occ. eigenvalues --   -0.74580  -0.74580  -0.67828  -0.67828  -0.67203
 Alpha  occ. eigenvalues --   -0.65220  -0.64602  -0.64602  -0.62315  -0.62315
 Alpha  occ. eigenvalues --   -0.62006  -0.60655  -0.60655  -0.59760  -0.55864
 Alpha  occ. eigenvalues --   -0.54078  -0.54022  -0.54021  -0.52998  -0.52998
 Alpha  occ. eigenvalues --   -0.51682  -0.51681  -0.51334  -0.50487  -0.50394
 Alpha  occ. eigenvalues --   -0.49715  -0.49715  -0.48152  -0.48152  -0.46177
 Alpha  occ. eigenvalues --   -0.46097  -0.46097  -0.45525  -0.45407  -0.44267
 Alpha  occ. eigenvalues --   -0.44267  -0.43064  -0.43064  -0.42586  -0.41783
 Alpha  occ. eigenvalues --   -0.41783  -0.40121  -0.38897  -0.38897  -0.38780
 Alpha  occ. eigenvalues --   -0.38617  -0.38617  -0.37571  -0.37571  -0.37472
 Alpha  occ. eigenvalues --   -0.37028  -0.37028  -0.36435  -0.35441  -0.35441
 Alpha  occ. eigenvalues --   -0.35181  -0.31621  -0.31621  -0.31195  -0.31038
 Alpha  occ. eigenvalues --   -0.28523  -0.28523  -0.26240  -0.26181  -0.26181
 Alpha  occ. eigenvalues --   -0.25095  -0.22336  -0.22336
 Alpha virt. eigenvalues --   -0.06498  -0.06498  -0.05528  -0.01905  -0.01905
 Alpha virt. eigenvalues --   -0.01543  -0.00837  -0.00557  -0.00557  -0.00554
 Alpha virt. eigenvalues --   -0.00554   0.00389   0.00418   0.00832   0.00832

 Mulliken charges:
               1
     1  C    0.141818
     2  C   -0.470812
     3  O   -0.470359
     4  C    0.141794
     5  C   -0.470815
     6  O   -0.470305
     7  C    0.141750
     8  C   -0.470681
     9  O   -0.470393
    10  H    0.676490
    11  H    0.676576
    12  H    0.676529
    13  H    0.169593
    14  C   -0.374673
    15  C   -0.115333
    16  H    0.178286
    17  C   -0.541999
    18  H    0.160570
    19  C    0.602970
    20  N   -0.146870
    21  C    0.841869
    22  O   -0.045124
    23  C   -0.592724
    24  H    0.183039
    25  C   -0.196848
    26  H    0.169594
    27  C   -0.374617
    28  C   -0.115336
    29  H    0.178283
    30  C   -0.541789
    31  H    0.160576
    32  C    0.602641
    33  N   -0.146807
    34  C    0.841632
    35  O   -0.045145
    36  C   -0.592596
    37  H    0.183035
    38  C   -0.196541
    39  H    0.169591
    40  C   -0.374718
    41  C   -0.115305
    42  H    0.178289
    43  C   -0.541929
    44  H    0.160570
    45  C    0.602788
    46  N   -0.146841
    47  C    0.841911
    48  O   -0.045182
    49  C   -0.592728
    50  H    0.183047
    51  C   -0.196769
 Sum of Mulliken charges =   0.00000

 Dipole moment (field-independent basis, Debye):
    X=             -0.0002    Y=              0.0002    Z=              0.0000  Tot=              0.0003
 Quadrupole moment (field-independent basis, Debye-Ang):
   XX=           -174.1809   YY=           -174.1835   ZZ=           -212.1432
   XY=              0.0013   XZ=              0.0002   YZ=              0.0001

  Exact polarizability:     565.848      -0.002     565.828      -0.000       0.002     166.346
 Approx polarizability:     810.742      -0.000     810.724      -0.002       0.005     274.682

                      1                      2                      3
                      A                      A                      A
 Frequencies --     18.2389                20.2479                20.5445
 Red. masses --      6.2427                 5.5339                 5.5309
 Frc consts  --      0.0012                 0.0013                 0.0014
 IR Inten    --      1.0811                 0.0063                 0.0013

                      4                      5                      6
                      A                      A                      A
 Frequencies --     34.7731                60.8222                60.8589
 Red. masses --      5.5106                 6.1970                 6.1971
 Frc consts  --      0.0039                 0.0135                 0.0135
 IR Inten    --      0.0515                 1.5342                 1.5348

                      7                      8                      9
                      A                      A                      A
 Frequencies --     61.4102                61.4912               106.4444
 Red. masses --      7.4221                 7.4189                 8.5731
 Frc consts  --      0.0165                 0.0165                 0.0572
 IR Inten    --      0.0000                 0.0000                 0.0000

                     10                     11                     12
                      A                      A                      A
 Frequencies --    106.5727               132.6349               142.6262
 Red. masses --      8.5802                 8.0747                 6.5735
 Frc consts  --      0.0574                 0.0837                 0.0788
 IR Inten    --      0.0000                 0.8111                 0.0000

                     13                     14                     15
                      A                      A                      A
 Frequencies --    208.9071               216.0731               220.6445
 Red. masses --      8.1341                 8.9673                 7.3991
 Frc consts  --      0.2092                 0.2467                 0.2122
 IR Inten    --      0.0000                 1.4450                 3.0044

                     16                     17                     18
                      A                      A                      A
 Frequencies --    220.6641               250.7526               250.7928
 Red. masses --      7.3992                 6.5371                 6.5390
 Frc consts  --      0.2123                 0.2422                 0.2423
 IR Inten    --      3.0053                 0.0000                 0.0000

                     19                     20                     21
                      A                      A                      A
 Frequencies --    255.5017               269.1861               269.2675
 Red. masses --      6.4558                 6.9991                 7.0019
 Frc consts  --      0.2483                 0.2988                 0.2991
 IR Inten    --      0.0002                 0.0000                 0.0000

                     22                     23                     24
                      A                      A                      A
 Frequencies --    312.5656               312.6028               339.2098
 Red. masses --      8.3377                 8.3372                 7.2958
 Frc consts  --      0.4799                 0.4800                 0.4946
 IR Inten    --      0.0280                 0.0280                 0.0342

                     25                     26                     27
                      A                      A                      A
 Frequencies --    370.9666               405.4932               405.5293
 Red. masses --      6.4635                 5.3249                 5.3157
 Frc consts  --      0.5241                 0.5159                 0.5151
 IR Inten    --      0.0000                 0.0000                 0.0000

                     28                     29                     30
                      A                      A                      A
 Frequencies --    432.8437               441.5358               441.5594
 Red. masses --      3.0960                 4.0722                 4.0772
 Frc consts  --      0.3418                 0.4677                 0.4684
 IR Inten    --     12.2622                 0.0000                 0.0000

                     31                     32                     33
                      A                      A                      A
 Frequencies --    449.0018               449.0473               503.3111
 Red. masses --      6.4494                 6.4509                 7.9243
 Frc consts  --      0.7661                 0.7664                 1.1827
 IR Inten    --     51.9434                51.9441                 0.0000

                     34                     35                     36
                      A                      A                      A
 Frequencies --    522.4732               522.5021               554.7293
 Red. masses --      8.4029                 8.4032                 8.1131
 Frc consts  --      1.3515                 1.3517                 1.4709
 IR Inten    --      1.9365                 1.9305                 3.5644

                     37                     38                     39
                      A                      A                      A
 Frequencies --    554.7513               579.9386               581.5349
 Red. masses --      8.1129                 8.4356                 4.0023
 Frc consts  --      1.4710                 1.6716                 0.7975
 IR Inten    --      3.5572                 0.0000                 0.0586

                     40                     41                     42
                      A                      A                      A
 Frequencies --    581.6412               581.6612               615.3931
 Red. masses --      4.0026                 4.0026                10.9315
 Frc consts  --      0.7978                 0.7979                 2.4391
 IR Inten    --      0.0009                 0.0002                 0.0000

                     43                     44                     45
                      A                      A                      A
 Frequencies --    644.4840               644.5059               645.4307
 Red. masses --      7.1036                 7.1034                 7.0992
 Frc consts  --      1.7384                 1.7385                 1.7424
 IR Inten    --      1.8824                 1.8798                 0.0006

                     46                     47                     48
                      A                      A                      A
 Frequencies --    683.4989               683.5317               711.8925
 Red. masses --      9.8507                 9.8485                 6.9311
 Frc consts  --      2.7114                 2.7111                 2.0696
 IR Inten    --      0.0000                 0.0001                13.5887

                     49                     50                     51
                      A                      A                      A
 Frequencies --    723.4681               723.4870               742.0407
 Red. masses --      7.5641                 7.5642                 2.6124
 Frc consts  --      2.3326                 2.3328                 0.8475
 IR Inten    --      0.6689                 0.6666                 0.0000

                     52                     53                     54
                      A                      A                      A
 Frequencies --    742.0930               750.1401               751.4195
 Red. masses --      2.6011                 2.3937                 3.7683
 Frc consts  --      0.8440                 0.7936                 1.2536
 IR Inten    --      0.0001                81.2924                 0.0052

                     55                     56                     57
                      A                      A                      A
 Frequencies --    751.4358               755.5582               761.6523
 Red. masses --      3.7746                 2.0946                 2.2813
 Frc consts  --      1.2558                 0.7045                 0.7797
 IR Inten    --      0.0000               105.0174                 0.0000

                     58                     59                     60
                      A                      A                      A
 Frequencies --    761.6905               775.9900               793.6700
 Red. masses --      2.2890                 7.3924                 6.6708
 Frc consts  --      0.7825                 2.6227                 2.4757
 IR Inten    --      0.0001                51.8870                 0.0000

                     61                     62                     63
                      A                      A                      A
 Frequencies --    814.4056               856.0207               856.2054
 Red. masses --      5.9179                 1.3796                 1.3815
 Frc consts  --      2.3126                 0.5956                 0.5967
 IR Inten    --      0.0000                 0.0048                 0.0000

                     64                     65                     66
                      A                      A                      A
 Frequencies --    856.2313               857.8782               857.8956
 Red. masses --      1.3814                 6.8643                 6.8647
 Frc consts  --      0.5967                 2.9764                 2.9767
 IR Inten    --      0.0002                69.5876                69.5533

                     67                     68                     69
                      A                      A                      A
 Frequencies --    897.6777               898.5430               901.3098
 Red. masses --      1.0853                 1.0849                 1.0701
 Frc consts  --      0.5153                 0.5161                 0.5122
 IR Inten    --      4.8010                 0.9307               212.2735

                     70                     71                     72
                      A                      A                      A
 Frequencies --    912.0682               918.1708               918.1768
 Red. masses --      7.4910                 7.0619                 7.0619
 Frc consts  --      3.6715                 3.5077                 3.5077
 IR Inten    --      0.0000                26.3593                26.3632

                     73                     74                     75
                      A                      A                      A
 Frequencies --    940.5562               940.5692               940.7023
 Red. masses --      1.3680                 1.3680                 1.3681
 Frc consts  --      0.7130                 0.7131                 0.7133
 IR Inten    --      0.0228                 0.0211                10.2502

                     76                     77                     78
                      A                      A                      A
 Frequencies --    961.3361               973.7449               973.7553
 Red. masses --     10.4605                 1.2596                 1.2596
 Frc consts  --      5.6958                 0.7037                 0.7037
 IR Inten    --      0.0000                 0.0004                 0.0009

                     79                     80                     81
                      A                      A                      A
 Frequencies --    973.8017               982.7194               982.7370
 Red. masses --      1.2598                11.1996                11.1981
 Frc consts  --      0.7039                 6.3725                 6.3719
 IR Inten    --      0.0534                37.8614                37.8506

                     82                     83                     84
                      A                      A                      A
 Frequencies --   1022.8149              1023.8015              1023.8170
 Red. masses --      2.0450                 2.0622                 2.0621
 Frc consts  --      1.2605                 1.2735                 1.2735
 IR Inten    --      0.0042                34.8191                34.8383

                     85                     86                     87
                      A                      A                      A
 Frequencies --   1097.4376              1123.0571              1123.0621
 Red. masses --      7.9798                 2.2576                 2.2562
 Frc consts  --      5.6624                 1.6776                 1.6766
 IR Inten    --      0.0000                 6.0055                 6.0116

                     88                     89                     90
                      A                      A                      A
 Frequencies --   1134.2456              1145.1259              1145.1352
 Red. masses --      1.5897                 3.3109                 3.3132
 Frc consts  --      1.2050                 2.5580                 2.5598
 IR Inten    --      0.0000                 3.5135                 3.5146

                     91                     92                     93
                      A                      A                      A
 Frequencies --   1177.6910              1177.6960              1177.7823
 Red. masses --      1.2303                 1.2303                 1.2113
 Frc consts  --      1.0054                 1.0054                 0.9900
 IR Inten    --     10.0693                10.0681                 0.0121

                     94                     95                     96
                      A                      A                      A
 Frequencies --   1207.9714              1207.9818              1217.0999
 Red. masses --      3.5422                 3.5427                 3.8627
 Frc consts  --      3.0453                 3.0458                 3.3713
 IR Inten    --     80.8247                80.8269                 0.0000

                     97                     98                     99
                      A                      A                      A
 Frequencies --   1277.3081              1277.3121              1278.7504
 Red. masses --      3.8815                 3.8814                 4.0559
 Frc consts  --      3.7311                 3.7310                 3.9076
 IR Inten    --    141.9232               142.0911                 0.0023

                    100                    101                    102
                      A                      A                      A
 Frequencies --   1295.2643              1295.3121              1302.8511
 Red. masses --      7.3002                 7.3044                 2.0384
 Frc consts  --      7.2161                 7.2207                 2.0386
 IR Inten    --    169.6460               169.6765                 0.0033

                    103                    104                    105
                      A                      A                      A
 Frequencies --   1311.4885              1311.4971              1327.6476
 Red. masses --      1.6902                 1.6901                 4.0385
 Frc consts  --      1.7128                 1.7127                 4.1941
 IR Inten    --     13.7192                13.6952                 0.0002

                    106                    107                    108
                      A                      A                      A
 Frequencies --   1368.1915              1378.3179              1378.3287
 Red. masses --      7.8914                 5.3411                 5.3409
 Frc consts  --      8.7036                 5.9784                 5.9782
 IR Inten    --      0.0000                 7.1725                 7.1481

                    109                    110                    111
                      A                      A                      A
 Frequencies --   1381.5524              1415.2830              1415.3819
 Red. masses --      6.8786                 3.3728                 3.3790
 Frc consts  --      7.7354                 3.9804                 3.9883
 IR Inten    --      0.0000                14.7799                14.8075

                    112                    113                    114
                      A                      A                      A
 Frequencies --   1424.1059              1474.0071              1474.0373
 Red. masses --     11.9341                 3.0260                 3.0236
 Frc consts  --     14.2602                 3.8736                 3.8707
 IR Inten    --      0.0009               405.5411               404.5162

                    115                    116                    117
                      A                      A                      A
 Frequencies --   1479.9188              1489.4731              1489.5128
 Red. masses --      2.5861                 3.5987                 3.6010
 Frc consts  --      3.3371                 4.7039                 4.7072
 IR Inten    --      0.0025               113.5775               114.1076

                    118                    119                    120
                      A                      A                      A
 Frequencies --   1505.1198              1508.3725              1508.3797
 Red. masses --      2.5996                 2.9214                 2.9204
 Frc consts  --      3.4697                 3.9161                 3.9148
 IR Inten    --      0.0009               103.6441               103.4959

                    121                    122                    123
                      A                      A                      A
 Frequencies --   1557.9097              1557.9237              1560.7944
 Red. masses --      5.1018                 5.0970                 1.7504
 Frc consts  --      7.2955                 7.2888                 2.5124
 IR Inten    --    429.1802               427.9095                 0.4001

                    124                    125                    126
                      A                      A                      A
 Frequencies --   1576.4354              1634.6049              1634.6126
 Red. masses --      3.0601                 4.7905                 4.7926
 Frc consts  --      4.4806                 7.5414                 7.5449
 IR Inten    --      0.0033               237.4937               236.4706

                    127                    128                    129
                      A                      A                      A
 Frequencies --   1642.3015              1652.8081              1652.8290
 Red. masses --      6.3813                 6.6849                 6.6879
 Frc consts  --     10.1406                10.7595                10.7646
 IR Inten    --      0.0009                71.4511                71.1036

                    130                    131                    132
                      A                      A                      A
 Frequencies --   1653.6129              1668.9255              1669.0229
 Red. masses --      7.4633                 2.8452                 2.8391
 Frc consts  --     12.0241                 4.6692                 4.6597
 IR Inten    --      0.0227               712.6228               713.0005

                    133                    134                    135
                      A                      A                      A
 Frequencies --   2996.7885              3005.1279              3005.2696
 Red. masses --      1.0747                 1.0742                 1.0742
 Frc consts  --      5.6865                 5.7158                 5.7164
 IR Inten    --      0.2708              1966.2512              1965.8699

                    136                    137                    138
                      A                      A                      A
 Frequencies --   3170.9677              3170.9763              3170.9849
 Red. masses --      1.0869                 1.0869                 1.0869
 Frc consts  --      6.4390                 6.4390                 6.4390
 IR Inten    --      2.8881                 2.7888                 2.6821

                    139                    140                    141
                      A                      A                      A
 Frequencies --   3185.5409              3185.5448              3185.5553
 Red. masses --      1.0908                 1.0908                 1.0908
 Frc consts  --      6.5219                 6.5220                 6.5220
 IR Inten    --     12.9973                12.8698                 0.7362

                    142                    143                    144
                      A                      A                      A
 Frequencies --   3198.3165              3198.3228              3198.3466
 Red. masses --      1.0950                 1.0950                 1.0950
 Frc consts  --      6.5995                 6.5995                 6.5996
 IR Inten    --     12.5464                 7.2553                 6.3087

                    145                    146                    147
                      A                      A                      A
 Frequencies --   3206.1250              3206.1442              3206.1644
 Red. masses --      1.0957                 1.0957                 1.0957
 Frc consts  --      6.6361                 6.6361                 6.6363
 IR Inten    --      6.8683                 7.4059                 0.7918

 - Thermochemistry -
 -------------------
 Temperature   298.150 Kelvin.  Pressure   1.00000 Atm.
 Atom     1 has atomic number  6 and mass  12.00000

 Molecular mass:   477.09609 amu.
 Principal axes and moments of inertia in atomic units:
                           1         2         3
     Eigenvalues --  ******************************
           X            1.00000  -0.00072   0.00000
           Y            0.00072   1.00000   0.00000
           Z           -0.00000  -0.00000   1.00000
 This molecule is an asymmetric top.
 Rotational symmetry number  1.
 Warning -- assumption of classical behavior for rotation
           may cause significant error
 Rotational temperatures (Kelvin)      0.00430     0.00430     0.00215
 Rotational constants (GHZ):           0.08966     0.08965     0.04483
 Zero-point vibrational energy     970957.0 (Joules/Mol)
                                  232.06429 (Kcal/Mol)
 Warning -- explicit consideration of  42 degrees of freedom as
           vibrations may cause significant error
 Vibrational temperatures:     26.24    29.13    29.56    50.03    87.51
          (Kelvin)             87.56    88.36    88.47   153.15   153.33
                              190.83   205.21   300.57   310.88   317.46
                              317.49   360.78   360.83   367.61   387.30
                              387.42   449.71   449.77   488.05   533.74
                              583.41   583.47   622.77   635.27   635.31
                              646.01   646.08   724.15   751.72   751.76
                              798.13   798.16   834.40   836.70   836.85
                              836.88   885.41   927.27   927.30   928.63
                              983.40   983.45  1024.25  1040.91  1040.94
                             1067.63  1067.71  1079.28  1081.13  1081.15
                             1087.08  1095.85  1095.90  1116.48  1141.91
                             1171.75  1231.62  1231.89  1231.93  1234.30
                             1234.32  1291.56  1292.80  1296.78  1312.26
                             1321.04  1321.05  1353.25  1353.27  1353.46
                             1383.15  1401.00  1401.02  1401.08  1413.91
                             1413.94  1471.60  1473.02  1473.04  1578.97
                             1615.83  1615.84  1631.93  1647.58  1647.59
                             1694.43  1694.44  1694.57  1738.00  1738.02
                             1751.14  1837.76  1837.77  1839.84  1863.60
                             1863.67  1874.51  1886.94  1886.95  1910.19
                             1968.52  1983.09  1983.11  1987.75  2036.28
                             2036.42  2048.97  2120.77  2120.81  2129.27
                             2143.02  2143.08  2165.53  2170.21  2170.22
                             2241.48  2241.50  2245.64  2268.14  2351.83
                             2351.84  2362.91  2378.02  2378.05  2379.18
                             2401.21  2401.35  4311.71  4323.71  4323.91
                             4562.32  4562.33  4562.34  4583.28  4583.29
                             4583.30  4601.66  4601.67  4601.71  4612.90
                             4612.93  4612.96

 Zero-point correction=                           0.369818 (Hartree/Particle)
 Thermal correction to Energy=                    0.395613
 Thermal correction to Enthalpy=                  0.396557
 Thermal correction to Gibbs Free Energy=         0.311120
 Sum of electronic and zero-point Energies=          -1653.665296
 Sum of electronic and thermal Energies=             -1653.639501
 Sum of electronic and thermal Enthalpies=           -1653.638557
 Sum of electronic and thermal Free Energies=        -1653.723994

                     E (Thermal)             CV                S
                      KCal/Mol        Cal/Mol-Kelvin    Cal/Mol-Kelvin
 Total                  248.251            104.375            179.818
 Electronic               0.000              0.000              0.000
 Translational            0.889              2.981             44.376
 Rotational               0.889              2.981             38.031
 Vibrational            246.474             98.413             97.411
 Vibration     1          0.593              1.986              6.817
 Vibration     2          0.593              1.986              6.610
 Vibration     3          0.593              1.986              6.581
 Vibration     4          0.594              1.983              5.537
 Vibration     5          0.597              1.973              4.430
 Vibration     6          0.597              1.973              4.429
 Vibration     7          0.597              1.973              4.411
 Vibration     8          0.597              1.973              4.409
 Vibration     9          0.605              1.944              3.333
 Vibration    10          0.605              1.944              3.330
 Vibration    11          0.613              1.921              2.907
 Vibration    12          0.616              1.911              2.768
 Vibration    13          0.642              1.827              2.053
 Vibration    14          0.645              1.817              1.992
 Vibration    15          0.647              1.810              1.954
 Vibration    16          0.647              1.810              1.954
 Vibration    17          0.663              1.761              1.725
 Vibration    18          0.663              1.761              1.725
 Vibration    19          0.666              1.753              1.692
 Vibration    20          0.674              1.730              1.601
 Vibration    21          0.674              1.730              1.601
 Vibration    22          0.701              1.650              1.349
 Vibration    23          0.701              1.650              1.349
 Vibration    24          0.719              1.597              1.216
 Vibration    25          0.743              1.532              1.076
 Vibration    26          0.770              1.458              0.943
 Vibration    27          0.771              1.458              0.943
 Vibration    28          0.794              1.399              0.849
 Vibration    29          0.801              1.380              0.822
 Vibration    30          0.801              1.380              0.822
 Vibration    31          0.808              1.363              0.799
 Vibration    32          0.808              1.363              0.799
 Vibration    33          0.859              1.243              0.650
 Vibration    34          0.877              1.200              0.604
 Vibration    35          0.877              1.200              0.604
 Vibration    36          0.910              1.129              0.534
 Vibration    37          0.910              1.129              0.534
 Vibration    38          0.937              1.075              0.485
 Vibration    39          0.938              1.071              0.483
 Vibration    40          0.938              1.071              0.482
 Vibration    41          0.938              1.071              0.482
 Vibration    42          0.975              0.999              0.424

 Optimization completed.
    -- Stationary point found.
 Normal termination of Gaussian 16 at Thu Aug  6 23:18:50 2020.
